 Entering Gaussian System, Link 0=/share/apps/g03/g03
 Initial command:
 /share/apps//g03/l1.exe /state/partition1/ante-gauss.6/Gau-872.inp -scrdir=/state/partition1/ante-gauss.6/
 Entering Link 1 = /share/apps//g03/l1.exe PID=       874.
  
 Copyright (c) 1988,1990,1992,1993,1995,1998,2003,2004, Gaussian, Inc.
                  All Rights Reserved.
  
 This is the Gaussian(R) 03 program.  It is based on the
 the Gaussian(R) 98 system (copyright 1998, Gaussian, Inc.),
 the Gaussian(R) 94 system (copyright 1995, Gaussian, Inc.),
 the Gaussian 92(TM) system (copyright 1992, Gaussian, Inc.),
 the Gaussian 90(TM) system (copyright 1990, Gaussian, Inc.),
 the Gaussian 88(TM) system (copyright 1988, Gaussian, Inc.),
 the Gaussian 86(TM) system (copyright 1986, Carnegie Mellon
 University), and the Gaussian 82(TM) system (copyright 1983,
 Carnegie Mellon University). Gaussian is a federally registered
 trademark of Gaussian, Inc.
  
 This software contains proprietary and confidential information,
 including trade secrets, belonging to Gaussian, Inc.
  
 This software is provided under written license and may be
 used, copied, transmitted, or stored only in accord with that
 written license.
  
 The following legend is applicable only to US Government
 contracts under FAR:
  
                    RESTRICTED RIGHTS LEGEND
  
 Use, reproduction and disclosure by the US Government is
 subject to restrictions as set forth in subparagraphs (a)
 and (c) of the Commercial Computer Software - Restricted
 Rights clause in FAR 52.227-19.
  
 Gaussian, Inc.
 340 Quinnipiac St., Bldg. 40, Wallingford CT 06492
  
  
 ---------------------------------------------------------------
 Warning -- This program may not be used in any manner that
 competes with the business of Gaussian, Inc. or will provide
 assistance to any competitor of Gaussian, Inc.  The licensee
 of this program is prohibited from giving any competitor of
 Gaussian, Inc. access to this program.  By using this program,
 the user acknowledges that Gaussian, Inc. is engaged in the
 business of creating and licensing software in the field of
 computational chemistry and represents and warrants to the
 licensee that it is not a competitor of Gaussian, Inc. and that
 it will not use this program in any manner prohibited above.
 ---------------------------------------------------------------
  

 Cite this work as:
 Gaussian 03, Revision D.02,
 M. J. Frisch, G. W. Trucks, H. B. Schlegel, G. E. Scuseria, 
 M. A. Robb, J. R. Cheeseman, J. A. Montgomery, Jr., T. Vreven, 
 K. N. Kudin, J. C. Burant, J. M. Millam, S. S. Iyengar, J. Tomasi, 
 V. Barone, B. Mennucci, M. Cossi, G. Scalmani, N. Rega, 
 G. A. Petersson, H. Nakatsuji, M. Hada, M. Ehara, K. Toyota, 
 R. Fukuda, J. Hasegawa, M. Ishida, T. Nakajima, Y. Honda, O. Kitao, 
 H. Nakai, M. Klene, X. Li, J. E. Knox, H. P. Hratchian, J. B. Cross, 
 V. Bakken, C. Adamo, J. Jaramillo, R. Gomperts, R. E. Stratmann, 
 O. Yazyev, A. J. Austin, R. Cammi, C. Pomelli, J. W. Ochterski, 
 P. Y. Ayala, K. Morokuma, G. A. Voth, P. Salvador, J. J. Dannenberg, 
 V. G. Zakrzewski, S. Dapprich, A. D. Daniels, M. C. Strain, 
 O. Farkas, D. K. Malick, A. D. Rabuck, K. Raghavachari, 
 J. B. Foresman, J. V. Ortiz, Q. Cui, A. G. Baboul, S. Clifford, 
 J. Cioslowski, B. B. Stefanov, G. Liu, A. Liashenko, P. Piskorz, 
 I. Komaromi, R. L. Martin, D. J. Fox, T. Keith, M. A. Al-Laham, 
 C. Y. Peng, A. Nanayakkara, M. Challacombe, P. M. W. Gill, 
 B. Johnson, W. Chen, M. W. Wong, C. Gonzalez, and J. A. Pople, 
 Gaussian, Inc., Wallingford CT, 2004.
 
 ******************************************
 Gaussian 03:  AM64L-G03RevD.02  1-Mar-2006
                22-Jun-2016 
 ******************************************
 %chk=molecule
 ------------------------------------------------------------
 #HF/6-31G* SCF=tight Test Pop=MK iop(6/33=2) iop(6/42=6) opt
 ------------------------------------------------------------
 1/18=20,38=1/1,3;
 2/9=110,17=6,18=5,40=1/2;
 3/5=1,6=6,7=1,11=9,16=1,25=1,30=1/1,2,3;
 4//1;
 5/5=2,32=2,38=5/2;
 6/7=2,8=2,9=2,10=2,15=8,20=1,28=1,33=2,42=6/1,2;
 7//1,2,3,16;
 1/18=20/3(3);
 2/9=110/2;
 6/7=2,8=2,9=2,10=2,15=8,19=2,20=1,28=1,33=2,42=6/1,2;
 99//99;
 2/9=110/2;
 3/5=1,6=6,7=1,11=9,16=1,25=1,30=1/1,2,3;
 4/5=5,16=3/1;
 5/5=2,32=2,38=5/2;
 7//1,2,3,16;
 1/18=20/3(-5);
 2/9=110/2;
 6/7=2,8=2,9=2,10=2,15=8,19=2,20=1,28=1,33=2,42=6/1,2;
 99/9=1/99;
 ---------------------
 remark line goes here
 ---------------------
 Symbolic Z-matrix:
 Charge = -1 Multiplicity = 1
 C                    -4.518     9.237     12.885 
 C                    -3.159     8.97      12.794 
 C                    -3.279     7.595     14.786 
 C                    -5.273     8.687     13.922 
 C                    -2.529     8.157     13.736 
 C                    -4.634     7.867     14.855 
 C                    -7.015     8.227     15.176 
 C                    -9.359     8.408     19.613 
 C                    -8.795     8.617     18.493 
 C                    -0.452     6.796     14.011 
 C                     3.06      5.486     13.871 
 C                    -8.649     7.57      17.423 
 C                     1.016     6.994     14.214 
 C                     1.844     6.122     13.268 
 N                    -6.637     8.87      14.13 
 N                    -1.127     7.911     13.602 
 O                    -1.006     5.698     14.204 
 O                     3.541     5.819     14.951 
 O                     3.574     4.548     13.119 
 S                    -5.786     7.32      16.032 
 S                    -8.707     8.224     15.729 
 H                    -0.585     8.629     13.165 
 H                     1.194     5.318     12.892 
 H                     2.173     6.751     12.428 
 H                     1.262     8.05      14.031 
 H                     1.27      6.733     15.252 
 H                    -9.465     6.842     17.54 
 H                    -7.683     7.064     17.565 
 H                    -8.394     9.61      18.297 
 H                    -9.77      7.426     19.841 
 H                    -9.431     9.212     20.344 
 H                    -2.804     6.961     15.526 
 H                    -2.581     9.397     11.982 
 H                    -4.994     9.875     12.149 
 

 GradGradGradGradGradGradGradGradGradGradGradGradGradGradGradGradGradGrad
 Berny optimization.
 Initialization pass.
                           ----------------------------
                           !    Initial Parameters    !
                           ! (Angstroms and Degrees)  !
 --------------------------                            --------------------------
 ! Name  Definition              Value          Derivative Info.                !
 --------------------------------------------------------------------------------
 ! R1    R(1,2)                  1.388          estimate D2E/DX2                !
 ! R2    R(1,4)                  1.3957         estimate D2E/DX2                !
 ! R3    R(1,34)                 1.0841         estimate D2E/DX2                !
 ! R4    R(2,5)                  1.3947         estimate D2E/DX2                !
 ! R5    R(2,33)                 1.0843         estimate D2E/DX2                !
 ! R6    R(3,5)                  1.4074         estimate D2E/DX2                !
 ! R7    R(3,6)                  1.3838         estimate D2E/DX2                !
 ! R8    R(3,32)                 1.0841         estimate D2E/DX2                !
 ! R9    R(4,6)                  1.3969         estimate D2E/DX2                !
 ! R10   R(4,15)                 1.3919         estimate D2E/DX2                !
 ! R11   R(5,16)                 1.4297         estimate D2E/DX2                !
 ! R12   R(6,20)                 1.7354         estimate D2E/DX2                !
 ! R13   R(7,15)                 1.2847         estimate D2E/DX2                !
 ! R14   R(7,20)                 1.751          estimate D2E/DX2                !
 ! R15   R(7,21)                 1.7801         estimate D2E/DX2                !
 ! R16   R(8,9)                  1.2713         estimate D2E/DX2                !
 ! R17   R(8,30)                 1.0887         estimate D2E/DX2                !
 ! R18   R(8,31)                 1.089          estimate D2E/DX2                !
 ! R19   R(9,12)                 1.5041         estimate D2E/DX2                !
 ! R20   R(9,29)                 1.0887         estimate D2E/DX2                !
 ! R21   R(10,13)                1.4951         estimate D2E/DX2                !
 ! R22   R(10,16)                1.3661         estimate D2E/DX2                !
 ! R23   R(10,17)                1.2449         estimate D2E/DX2                !
 ! R24   R(11,14)                1.4989         estimate D2E/DX2                !
 ! R25   R(11,18)                1.2283         estimate D2E/DX2                !
 ! R26   R(11,19)                1.3075         estimate D2E/DX2                !
 ! R27   R(12,21)                1.8168         estimate D2E/DX2                !
 ! R28   R(12,27)                1.0998         estimate D2E/DX2                !
 ! R29   R(12,28)                1.0997         estimate D2E/DX2                !
 ! R30   R(13,14)                1.53           estimate D2E/DX2                !
 ! R31   R(13,25)                1.0996         estimate D2E/DX2                !
 ! R32   R(13,26)                1.1            estimate D2E/DX2                !
 ! R33   R(14,23)                1.1001         estimate D2E/DX2                !
 ! R34   R(14,24)                1.0998         estimate D2E/DX2                !
 ! R35   R(16,22)                1.0001         estimate D2E/DX2                !
 ! A1    A(2,1,4)              120.1706         estimate D2E/DX2                !
 ! A2    A(2,1,34)             119.9074         estimate D2E/DX2                !
 ! A3    A(4,1,34)             119.922          estimate D2E/DX2                !
 ! A4    A(1,2,5)              120.6725         estimate D2E/DX2                !
 ! A5    A(1,2,33)             119.6876         estimate D2E/DX2                !
 ! A6    A(5,2,33)             119.6399         estimate D2E/DX2                !
 ! A7    A(5,3,6)              118.7197         estimate D2E/DX2                !
 ! A8    A(5,3,32)             120.6174         estimate D2E/DX2                !
 ! A9    A(6,3,32)             120.6629         estimate D2E/DX2                !
 ! A10   A(1,4,6)              118.6952         estimate D2E/DX2                !
 ! A11   A(1,4,15)             126.1115         estimate D2E/DX2                !
 ! A12   A(6,4,15)             115.193          estimate D2E/DX2                !
 ! A13   A(2,5,3)              119.7316         estimate D2E/DX2                !
 ! A14   A(2,5,16)             118.6818         estimate D2E/DX2                !
 ! A15   A(3,5,16)             121.5859         estimate D2E/DX2                !
 ! A16   A(3,6,4)              122.0079         estimate D2E/DX2                !
 ! A17   A(3,6,20)             128.4542         estimate D2E/DX2                !
 ! A18   A(4,6,20)             109.5343         estimate D2E/DX2                !
 ! A19   A(15,7,20)            116.7941         estimate D2E/DX2                !
 ! A20   A(15,7,21)            122.2393         estimate D2E/DX2                !
 ! A21   A(20,7,21)            120.9591         estimate D2E/DX2                !
 ! A22   A(9,8,30)             120.0185         estimate D2E/DX2                !
 ! A23   A(9,8,31)             119.9552         estimate D2E/DX2                !
 ! A24   A(30,8,31)            120.0263         estimate D2E/DX2                !
 ! A25   A(8,9,12)             123.7343         estimate D2E/DX2                !
 ! A26   A(8,9,29)             118.1618         estimate D2E/DX2                !
 ! A27   A(12,9,29)            118.1039         estimate D2E/DX2                !
 ! A28   A(13,10,16)           114.6902         estimate D2E/DX2                !
 ! A29   A(13,10,17)           122.1876         estimate D2E/DX2                !
 ! A30   A(16,10,17)           123.1222         estimate D2E/DX2                !
 ! A31   A(14,11,18)           123.8061         estimate D2E/DX2                !
 ! A32   A(14,11,19)           113.0753         estimate D2E/DX2                !
 ! A33   A(18,11,19)           123.1112         estimate D2E/DX2                !
 ! A34   A(9,12,21)            114.1811         estimate D2E/DX2                !
 ! A35   A(9,12,27)            108.2444         estimate D2E/DX2                !
 ! A36   A(9,12,28)            108.2818         estimate D2E/DX2                !
 ! A37   A(21,12,27)           108.2879         estimate D2E/DX2                !
 ! A38   A(21,12,28)           108.3049         estimate D2E/DX2                !
 ! A39   A(27,12,28)           109.4776         estimate D2E/DX2                !
 ! A40   A(10,13,14)           111.8347         estimate D2E/DX2                !
 ! A41   A(10,13,25)           108.9193         estimate D2E/DX2                !
 ! A42   A(10,13,26)           108.869          estimate D2E/DX2                !
 ! A43   A(14,13,25)           108.8665         estimate D2E/DX2                !
 ! A44   A(14,13,26)           108.8595         estimate D2E/DX2                !
 ! A45   A(25,13,26)           109.4653         estimate D2E/DX2                !
 ! A46   A(11,14,13)           115.6023         estimate D2E/DX2                !
 ! A47   A(11,14,23)           107.8617         estimate D2E/DX2                !
 ! A48   A(11,14,24)           107.894          estimate D2E/DX2                !
 ! A49   A(13,14,23)           107.9444         estimate D2E/DX2                !
 ! A50   A(13,14,24)           107.9499         estimate D2E/DX2                !
 ! A51   A(23,14,24)           109.4928         estimate D2E/DX2                !
 ! A52   A(4,15,7)             110.1338         estimate D2E/DX2                !
 ! A53   A(5,16,10)            126.6497         estimate D2E/DX2                !
 ! A54   A(5,16,22)            116.6702         estimate D2E/DX2                !
 ! A55   A(10,16,22)           116.6801         estimate D2E/DX2                !
 ! A56   A(6,20,7)              88.3436         estimate D2E/DX2                !
 ! A57   A(7,21,12)            105.0657         estimate D2E/DX2                !
 ! D1    D(4,1,2,5)             -0.2871         estimate D2E/DX2                !
 ! D2    D(4,1,2,33)           179.665          estimate D2E/DX2                !
 ! D3    D(34,1,2,5)           179.6699         estimate D2E/DX2                !
 ! D4    D(34,1,2,33)           -0.378          estimate D2E/DX2                !
 ! D5    D(2,1,4,6)             -0.1373         estimate D2E/DX2                !
 ! D6    D(2,1,4,15)          -179.9025         estimate D2E/DX2                !
 ! D7    D(34,1,4,6)           179.9057         estimate D2E/DX2                !
 ! D8    D(34,1,4,15)            0.1405         estimate D2E/DX2                !
 ! D9    D(1,2,5,3)              0.3467         estimate D2E/DX2                !
 ! D10   D(1,2,5,16)          -179.9504         estimate D2E/DX2                !
 ! D11   D(33,2,5,3)          -179.6054         estimate D2E/DX2                !
 ! D12   D(33,2,5,16)            0.0975         estimate D2E/DX2                !
 ! D13   D(6,3,5,2)              0.0209         estimate D2E/DX2                !
 ! D14   D(6,3,5,16)          -179.6731         estimate D2E/DX2                !
 ! D15   D(32,3,5,2)           179.9973         estimate D2E/DX2                !
 ! D16   D(32,3,5,16)            0.3032         estimate D2E/DX2                !
 ! D17   D(5,3,6,4)             -0.4566         estimate D2E/DX2                !
 ! D18   D(5,3,6,20)          -179.6844         estimate D2E/DX2                !
 ! D19   D(32,3,6,4)           179.567          estimate D2E/DX2                !
 ! D20   D(32,3,6,20)            0.3392         estimate D2E/DX2                !
 ! D21   D(1,4,6,3)              0.5164         estimate D2E/DX2                !
 ! D22   D(1,4,6,20)           179.8748         estimate D2E/DX2                !
 ! D23   D(15,4,6,3)          -179.6933         estimate D2E/DX2                !
 ! D24   D(15,4,6,20)           -0.3349         estimate D2E/DX2                !
 ! D25   D(1,4,15,7)          -179.8267         estimate D2E/DX2                !
 ! D26   D(6,4,15,7)             0.401          estimate D2E/DX2                !
 ! D27   D(2,5,16,10)         -150.8492         estimate D2E/DX2                !
 ! D28   D(2,5,16,22)           29.2163         estimate D2E/DX2                !
 ! D29   D(3,5,16,10)           28.8479         estimate D2E/DX2                !
 ! D30   D(3,5,16,22)         -151.0865         estimate D2E/DX2                !
 ! D31   D(3,6,20,7)           179.4447         estimate D2E/DX2                !
 ! D32   D(4,6,20,7)             0.1395         estimate D2E/DX2                !
 ! D33   D(20,7,15,4)           -0.2872         estimate D2E/DX2                !
 ! D34   D(21,7,15,4)         -179.2983         estimate D2E/DX2                !
 ! D35   D(15,7,20,6)            0.0886         estimate D2E/DX2                !
 ! D36   D(21,7,20,6)          179.1132         estimate D2E/DX2                !
 ! D37   D(15,7,21,12)        -165.6549         estimate D2E/DX2                !
 ! D38   D(20,7,21,12)          15.3744         estimate D2E/DX2                !
 ! D39   D(30,8,9,12)           -0.0089         estimate D2E/DX2                !
 ! D40   D(30,8,9,29)         -179.96           estimate D2E/DX2                !
 ! D41   D(31,8,9,12)         -179.9888         estimate D2E/DX2                !
 ! D42   D(31,8,9,29)            0.0601         estimate D2E/DX2                !
 ! D43   D(8,9,12,21)          147.3806         estimate D2E/DX2                !
 ! D44   D(8,9,12,27)           26.7036         estimate D2E/DX2                !
 ! D45   D(8,9,12,28)          -91.8938         estimate D2E/DX2                !
 ! D46   D(29,9,12,21)         -32.6683         estimate D2E/DX2                !
 ! D47   D(29,9,12,27)        -153.3453         estimate D2E/DX2                !
 ! D48   D(29,9,12,28)          88.0573         estimate D2E/DX2                !
 ! D49   D(16,10,13,14)       -117.7054         estimate D2E/DX2                !
 ! D50   D(16,10,13,25)          2.6645         estimate D2E/DX2                !
 ! D51   D(16,10,13,26)        121.9668         estimate D2E/DX2                !
 ! D52   D(17,10,13,14)         62.3872         estimate D2E/DX2                !
 ! D53   D(17,10,13,25)       -177.2428         estimate D2E/DX2                !
 ! D54   D(17,10,13,26)        -57.9406         estimate D2E/DX2                !
 ! D55   D(13,10,16,5)        -158.4432         estimate D2E/DX2                !
 ! D56   D(13,10,16,22)         21.4912         estimate D2E/DX2                !
 ! D57   D(17,10,16,5)          21.4632         estimate D2E/DX2                !
 ! D58   D(17,10,16,22)       -158.6024         estimate D2E/DX2                !
 ! D59   D(18,11,14,13)        -14.1274         estimate D2E/DX2                !
 ! D60   D(18,11,14,23)       -135.0147         estimate D2E/DX2                !
 ! D61   D(18,11,14,24)        106.7914         estimate D2E/DX2                !
 ! D62   D(19,11,14,13)        166.8387         estimate D2E/DX2                !
 ! D63   D(19,11,14,23)         45.9513         estimate D2E/DX2                !
 ! D64   D(19,11,14,24)        -72.2425         estimate D2E/DX2                !
 ! D65   D(9,12,21,7)          103.4981         estimate D2E/DX2                !
 ! D66   D(27,12,21,7)        -135.8492         estimate D2E/DX2                !
 ! D67   D(28,12,21,7)         -17.2146         estimate D2E/DX2                !
 ! D68   D(10,13,14,11)       -139.2567         estimate D2E/DX2                !
 ! D69   D(10,13,14,23)        -18.4141         estimate D2E/DX2                !
 ! D70   D(10,13,14,24)         99.8547         estimate D2E/DX2                !
 ! D71   D(25,13,14,11)        100.3425         estimate D2E/DX2                !
 ! D72   D(25,13,14,23)       -138.8149         estimate D2E/DX2                !
 ! D73   D(25,13,14,24)        -20.5461         estimate D2E/DX2                !
 ! D74   D(26,13,14,11)        -18.9233         estimate D2E/DX2                !
 ! D75   D(26,13,14,23)        101.9193         estimate D2E/DX2                !
 ! D76   D(26,13,14,24)       -139.8119         estimate D2E/DX2                !
 --------------------------------------------------------------------------------
 Trust Radius=3.00D-01 FncErr=1.00D-07 GrdErr=1.00D-07
 Number of steps in this run= 178 maximum allowed number of steps= 204.
 GradGradGradGradGradGradGradGradGradGradGradGradGradGradGradGradGradGrad

                          Input orientation:                          
 ---------------------------------------------------------------------
 Center     Atomic     Atomic              Coordinates (Angstroms)
 Number     Number      Type              X           Y           Z
 ---------------------------------------------------------------------
    1          6             0       -4.518000    9.237000   12.885000
    2          6             0       -3.159000    8.970000   12.794000
    3          6             0       -3.279000    7.595000   14.786000
    4          6             0       -5.273000    8.687000   13.922000
    5          6             0       -2.529000    8.157000   13.736000
    6          6             0       -4.634000    7.867000   14.855000
    7          6             0       -7.015000    8.227000   15.176000
    8          6             0       -9.359000    8.408000   19.613000
    9          6             0       -8.795000    8.617000   18.493000
   10          6             0       -0.452000    6.796000   14.011000
   11          6             0        3.060000    5.486000   13.871000
   12          6             0       -8.649000    7.570000   17.423000
   13          6             0        1.016000    6.994000   14.214000
   14          6             0        1.844000    6.122000   13.268000
   15          7             0       -6.637000    8.870000   14.130000
   16          7             0       -1.127000    7.911000   13.602000
   17          8             0       -1.006000    5.698000   14.204000
   18          8             0        3.541000    5.819000   14.951000
   19          8             0        3.574000    4.548000   13.119000
   20         16             0       -5.786000    7.320000   16.032000
   21         16             0       -8.707000    8.224000   15.729000
   22          1             0       -0.585000    8.629000   13.165000
   23          1             0        1.194000    5.318000   12.892000
   24          1             0        2.173000    6.751000   12.428000
   25          1             0        1.262000    8.050000   14.031000
   26          1             0        1.270000    6.733000   15.252000
   27          1             0       -9.465000    6.842000   17.540000
   28          1             0       -7.683000    7.064000   17.565000
   29          1             0       -8.394000    9.610000   18.297000
   30          1             0       -9.770000    7.426000   19.841000
   31          1             0       -9.431000    9.212000   20.344000
   32          1             0       -2.804000    6.961000   15.526000
   33          1             0       -2.581000    9.397000   11.982000
   34          1             0       -4.994000    9.875000   12.149000
 ---------------------------------------------------------------------
                    Distance matrix (angstroms):
                    1          2          3          4          5
     1  C    0.000000
     2  C    1.387966   0.000000
     3  C    2.800908   2.423446   0.000000
     4  C    1.395670   2.412772   2.432076   0.000000
     5  C    2.418000   1.394716   1.407425   2.800898   0.000000
     6  C    2.402344   2.764047   1.383752   1.396857   2.401517
     7  C    3.536070   4.592898   3.809097   2.195149   4.711974
     8  C    8.329976   9.233342   7.805594   7.011470   9.013935
     9  C    7.080028   8.022949   6.724031   5.770912   7.880571
    10  C    4.874291   3.679024   3.038249   5.179367   2.498374
    11  C    8.512830   7.209310   6.742998   8.926807   6.195917
    12  C    6.359048   7.316266   5.982583   4.990197   7.168887
    13  C    6.117389   4.832349   4.374404   6.519435   3.761393
    14  C    7.094009   5.776313   5.542489   7.593328   4.845965
    15  N    2.484930   3.727114   3.651318   1.391851   4.187991
    16  N    3.710963   2.429685   2.476452   4.230117   1.429712
    17  O    5.157366   4.162871   3.017261   5.217368   2.930057
    18  O    8.994363   7.711773   7.049383   9.325817   6.617203
    19  O    9.355316   8.061823   7.682884   9.800283   7.117034
    20  S    3.896963   4.484225   2.813039   2.565922   4.071883
    21  S    5.163548   6.320684   5.545095   3.907937   6.491858
    22  H    3.989555   2.622861   3.309748   4.749080   2.080375
    23  H    6.927161   5.682897   5.364671   7.364316   4.757414
    24  H    7.152519   5.786894   5.999734   7.837286   5.079026
    25  H    6.010881   4.682073   4.625768   6.566877   3.803966
    26  H    6.735997   5.537326   4.653343   6.956857   4.331101
    27  H    7.202629   8.174261   6.813085   5.836678   8.019210
    28  H    6.053227   6.845572   5.234503   4.659794   6.513034
    29  H    6.667252   7.622194   6.523080   5.452815   7.570479
    30  H    8.902200   9.785166   8.228892   7.539741   9.499340
    31  H    8.931678   9.818302   8.447080   7.668551   9.613339
    32  H    3.884952   3.409682   1.084058   3.412895   2.170286
    33  H    2.143123   1.084323   3.405411   3.393312   2.148679
    34  H    1.084120   2.145291   3.885022   2.152374   3.397987
                    6          7          8          9         10
     6  C    0.000000
     7  C    2.429362   0.000000
     8  C    6.727323   5.021361   0.000000
     9  C    5.577765   3.784572   1.271290   0.000000
    10  C    4.398693   6.817474  10.644980   9.644170   0.000000
    11  C    8.113880  10.522439  13.990719  13.103704   3.750979
    12  C    4.775255   2.854928   2.449989   1.504136   8.912442
    13  C    5.752870   8.181852  11.780884  10.825881   1.495138
    14  C    6.894061   9.303406  13.076392  12.112554   2.505582
    15  N    2.354494   1.284698   6.138894   4.874089   6.524558
    16  N    3.724378   6.102940  10.205144   9.122420   1.366064
    17  O    4.276768   6.591563  10.313777   9.358665   1.244897
    18  O    8.428176  10.829507  13.958767  13.135885   4.216892
    19  O    9.022235  11.397070  14.977788  14.086476   4.696578
    20  S    1.735408   1.750950   5.174324   4.097903   5.728051
    21  S    4.180987   1.780079   3.942641   2.793186   8.551943
    22  H    4.453217   6.749120  10.890759   9.787330   2.023189
    23  H    6.657053   9.003700  12.887426  11.917832   2.479105
    24  H    7.312389   9.703063  13.687838  12.671354   3.065704
    25  H    5.956113   8.357696  12.003855  11.016995   2.123844
    26  H    6.025013   8.418969  11.610322  10.740473   2.123519
    27  H    5.621246   3.675489   2.600177   2.123142   9.679366
    28  H    4.157561   2.739729   2.968100   2.123567   8.061644
    29  H    5.387301   3.681708   2.026792   1.088699   9.453241
    30  H    7.171692   5.476664   1.088682   2.046023  11.009583
    31  H    7.412783   5.789258   1.089018   2.045659  11.250173
    32  H    2.149413   4.411097   7.859097   6.887489   2.802562
    33  H    3.848355   5.588461  10.254344   9.034120   3.926154
    34  H    3.388820   3.995382   8.770212   7.501767   5.794571
                   11         12         13         14         15
    11  C    0.000000
    12  C   12.412109   0.000000
    13  C    2.563133  10.200082   0.000000
    14  C    1.498920  11.378215   1.529995   0.000000
    15  N   10.273770   4.072099   7.880028   8.956668   0.000000
    16  N    4.846025   8.443744   2.409955   3.484095   5.617701
    17  O    4.085118   8.501870   2.401708   3.029583   6.463375
    18  O    1.228271  12.560768   2.880871   2.409171  10.657126
    19  O    1.307495  13.306338   3.704768   2.343625  11.134017
    20  S    9.288982   3.192828   7.048305   8.203158   2.596980
    21  S   12.223383   1.816787   9.916897  11.036237   2.694256
    22  H    4.864454   9.180422   2.517306   3.492234   6.133189
    23  H    2.113911  11.067344   2.142042   1.100133   8.687572
    24  H    2.114058  11.947237   2.141844   1.099765   9.219711
    25  H    3.135682  10.486371   1.099609   2.153620   7.942065
    26  H    2.581912  10.188247   1.100037   2.153846   8.267182
    27  H   13.121582   1.099786  10.997124  12.110403   4.872214
    28  H   11.469428   1.099707   9.322376  10.493584   4.019325
    29  H   12.953415   2.233943  10.585955  11.927851   4.582416
    30  H   14.283326   2.669101  12.173231  13.408570   6.672057
    31  H   14.553621   3.440920  12.314066  13.665413   6.821818
    32  H    6.269063   6.175234   4.039162   5.235111   4.503886
    33  H    7.119348   8.352427   4.867714   5.653322   4.619823
    34  H    9.332498   6.818147   6.977427   7.880064   2.762940
                   16         17         18         19         20
    16  N    0.000000
    17  O    2.296609   0.000000
    18  O    5.290226   4.609540   0.000000
    19  O    5.800212   4.845217   2.229967   0.000000
    20  S    5.287765   5.368507   9.508653  10.187205   0.000000
    21  S    7.878991   8.246921  12.506111  13.082356   3.072664
    22  H    1.000128   3.138076   5.301865   5.827002   6.081412
    23  H    3.551731   2.589545   3.162102   2.511738   7.911258
    24  H    3.689699   3.790650   3.017545   2.700646   8.755470
    25  H    2.431190   3.271950   3.319277   4.294309   7.362826
    26  H    3.139394   2.711034   2.466463   3.825223   7.123209
    27  H    9.282933   9.164732  13.300582  13.957908   4.004696
    28  H    7.707393   7.598987  11.591428  12.361926   2.452394
    29  H    8.816967   9.308004  12.961930  13.988158   4.144392
    30  H   10.670604  10.562644  14.271555  15.216126   5.512892
    31  H   10.775137  11.001292  14.452324  15.591137   5.954749
    32  H    2.723344   2.564304   6.472543   7.231535   3.045856
    33  H    2.635662   4.593529   7.687388   7.917676   5.566727
    34  H    4.574078   6.129804   9.856397  10.135505   4.715186
                   21         22         23         24         25
    21  S    0.000000
    22  H    8.526723   0.000000
    23  H   10.701552   3.768566   0.000000
    24  H   11.464760   3.417107   1.796448   0.000000
    25  H   10.114071   2.120520   2.960704   2.255423   0.000000
    26  H   10.099066   3.375116   2.752744   2.964913   1.795938
    27  H    2.400877  10.059244  11.727777  12.711564  11.350809
    28  H    2.401056   8.496519  10.182660  11.118789   9.668215
    29  H    2.934892   9.395758  11.813765  12.420971  10.671021
    30  H    4.321495  11.418424  13.150725  14.072791  12.484010
    31  H    4.774782  11.407438  13.549397  14.260869  12.471747
    32  H    6.040015   3.644243   5.061759   5.866194   4.466912
    33  H    7.276250   2.444039   5.631782   5.459006   4.558669
    34  H    5.415586   4.692979   7.720728   7.823241   6.783073
                   26         27         28         29         30
    26  H    0.000000
    27  H   10.976659   0.000000
    28  H    9.252877   1.795949   0.000000
    29  H   10.532903   3.062991   2.742893   0.000000
    30  H   11.975841   2.393467   3.109146   3.007851   0.000000
    31  H   12.107242   3.671576   3.923296   2.328944   1.886194
    32  H    4.089564   6.959833   5.288929   6.778181   8.207351
    33  H    5.711392   9.209172   7.914745   8.585777  10.831918
    34  H    7.664103   7.632287   6.668245   7.030514   9.379480
                   31         32         33         34
    31  H    0.000000
    32  H    8.496897   0.000000
    33  H   10.811095   4.306247   0.000000
    34  H    9.342621   4.969067   2.465551   0.000000
 Stoichiometry    C14H13N2O3S2(1-)
 Framework group  C1[X(C14H13N2O3S2)]
 Deg. of freedom    96
 Full point group                 C1
 Largest Abelian subgroup         C1      NOp   1
 Largest concise Abelian subgroup C1      NOp   1
                         Standard orientation:                         
 ---------------------------------------------------------------------
 Center     Atomic     Atomic              Coordinates (Angstroms)
 Number     Number      Type              X           Y           Z
 ---------------------------------------------------------------------
    1          6             0       -0.659385    2.764689    0.372035
    2          6             0        0.694666    2.502828    0.528321
    3          6             0        0.301779    0.145228    0.127759
    4          6             0       -1.546930    1.725060    0.090379
    5          6             0        1.185848    1.202584    0.412827
    6          6             0       -1.043338    0.427899   -0.032007
    7          6             0       -3.439177    0.695689   -0.332086
    8          6             0       -6.925394   -2.697381    0.911871
    9          6             0       -6.123535   -1.716390    0.807690
   10          6             0        3.333724   -0.006298    0.004039
   11          6             0        6.933149   -1.058003   -0.084828
   12          6             0       -5.470105   -1.305092   -0.483158
   13          6             0        4.611641   -0.321112    0.713445
   14          6             0        5.833368   -0.042671   -0.164472
   15          7             0       -2.921474    1.846596   -0.091576
   16          7             0        2.588031    0.981131    0.582879
   17          8             0        2.985091   -0.604018   -1.030831
   18          8             0        7.010856   -1.913877    0.792721
   19          8             0        7.819369   -0.929339   -1.037510
   20         16             0       -2.343078   -0.668994   -0.377180
   21         16             0       -5.180373    0.482071   -0.634220
   22          1             0        3.072171    1.613183    1.188169
   23          1             0        5.495108    0.007058   -1.210129
   24          1             0        6.249875    0.930678    0.133180
   25          1             0        4.677405    0.296820    1.620625
   26          1             0        4.610206   -1.384828    0.993778
   27          1             0       -6.118666   -1.620942   -1.313300
   28          1             0       -4.501149   -1.819669   -0.558595
   29          1             0       -5.895925   -1.141402    1.703708
   30          1             0       -7.173663   -3.293359    0.035286
   31          1             0       -7.363984   -2.940915    1.878459
   32          1             0        0.668024   -0.870849    0.034841
   33          1             0        1.378032    3.317242    0.741623
   34          1             0       -1.028516    3.779341    0.469711
 ---------------------------------------------------------------------
 Rotational constants (GHZ):      0.6989474      0.0769290      0.0716218
 Standard basis: 6-31G(d) (6D, 7F)
 There are   349 symmetry adapted basis functions of A   symmetry.
 Integral buffers will be    131072 words long.
 Raffenetti 1 integral format.
 Two-electron integral symmetry is turned on.
   349 basis functions,   688 primitive gaussians,   349 cartesian basis functions
    84 alpha electrons       84 beta electrons
       nuclear repulsion energy      1733.1707818866 Hartrees.
 NAtoms=   34 NActive=   34 NUniq=   34 SFac= 7.50D-01 NAtFMM=   80 NAOKFM=F Big=F
 One-electron integrals computed using PRISM.
 NBasis=   349 RedAO= T  NBF=   349
 NBsUse=   349 1.00D-06 NBFU=   349
 Harris functional with IExCor=  205 diagonalized for initial guess.
 ExpMin= 1.17D-01 ExpMax= 2.19D+04 ExpMxC= 3.30D+03 IAcc=1 IRadAn=         1 AccDes= 1.00D-06
 HarFok:  IExCor= 205 AccDes= 1.00D-06 IRadAn=         1 IDoV=1
 ScaDFX=  1.000000  1.000000  1.000000  1.000000
 Initial guess orbital symmetries:
       Occupied  (A) (A) (A) (A) (A) (A) (A) (A) (A) (A) (A) (A)
                 (A) (A) (A) (A) (A) (A) (A) (A) (A) (A) (A) (A)
                 (A) (A) (A) (A) (A) (A) (A) (A) (A) (A) (A) (A)
                 (A) (A) (A) (A) (A) (A) (A) (A) (A) (A) (A) (A)
                 (A) (A) (A) (A) (A) (A) (A) (A) (A) (A) (A) (A)
                 (A) (A) (A) (A) (A) (A) (A) (A) (A) (A) (A) (A)
                 (A) (A) (A) (A) (A) (A) (A) (A) (A) (A) (A) (A)
       Virtual   (A) (A) (A) (A) (A) (A) (A) (A) (A) (A) (A) (A)
                 (A) (A) (A) (A) (A) (A) (A) (A) (A) (A) (A) (A)
                 (A) (A) (A) (A) (A) (A) (A) (A) (A) (A) (A) (A)
                 (A) (A) (A) (A) (A) (A) (A) (A) (A) (A) (A) (A)
                 (A) (A) (A) (A) (A) (A) (A) (A) (A) (A) (A) (A)
                 (A) (A) (A) (A) (A) (A) (A) (A) (A) (A) (A) (A)
                 (A) (A) (A) (A) (A) (A) (A) (A) (A) (A) (A) (A)
                 (A) (A) (A) (A) (A) (A) (A) (A) (A) (A) (A) (A)
                 (A) (A) (A) (A) (A) (A) (A) (A) (A) (A) (A) (A)
                 (A) (A) (A) (A) (A) (A) (A) (A) (A) (A) (A) (A)
                 (A) (A) (A) (A) (A) (A) (A) (A) (A) (A) (A) (A)
                 (A) (A) (A) (A) (A) (A) (A) (A) (A) (A) (A) (A)
                 (A) (A) (A) (A) (A) (A) (A) (A) (A) (A) (A) (A)
                 (A) (A) (A) (A) (A) (A) (A) (A) (A) (A) (A) (A)
                 (A) (A) (A) (A) (A) (A) (A) (A) (A) (A) (A) (A)
                 (A) (A) (A) (A) (A) (A) (A) (A) (A) (A) (A) (A)
                 (A) (A) (A) (A) (A) (A) (A) (A) (A) (A) (A) (A)
                 (A) (A) (A) (A) (A) (A) (A) (A) (A) (A) (A) (A)
                 (A) (A) (A) (A) (A) (A) (A) (A) (A) (A) (A) (A)
                 (A) (A) (A) (A) (A) (A) (A) (A) (A) (A) (A) (A)
                 (A) (A) (A) (A) (A) (A) (A) (A) (A) (A) (A) (A)
                 (A) (A) (A) (A) (A) (A) (A) (A) (A) (A) (A) (A)
                 (A)
 The electronic state of the initial guess is 1-A.
 Requested convergence on RMS density matrix=1.00D-08 within 128 cycles.
 Requested convergence on MAX density matrix=1.00D-06.
 Requested convergence on             energy=1.00D-06.
 No special actions if energy rises.
 Integral accuracy reduced to 1.0D-05 until final iterations.
 Initial convergence to 1.0D-05 achieved.  Increase integral accuracy.
 SCF Done:  E(RHF) =  -1666.22634633     A.U. after   16 cycles
             Convg  =    0.9409D-08             -V/T =  2.0011
             S**2   =   0.0000

 **********************************************************************

            Population analysis using the SCF density.

 **********************************************************************

 Orbital symmetries:
 BldTbl:  Degeneracy threshold= 1.00D-02
       Occupied  (A) (A) (A) (A) (A) (A) (A) (A) (A) (A) (A) (A)
                 (A) (A) (A) (A) (A) (A) (A) (A) (A) (A) (A) (A)
                 (A) (A) (A) (A) (A) (A) (A) (A) (A) (A) (A) (A)
                 (A) (A) (A) (A) (A) (A) (A) (A) (A) (A) (A) (A)
                 (A) (A) (A) (A) (A) (A) (A) (A) (A) (A) (A) (A)
                 (A) (A) (A) (A) (A) (A) (A) (A) (A) (A) (A) (A)
                 (A) (A) (A) (A) (A) (A) (A) (A) (A) (A) (A) (A)
       Virtual   (A) (A) (A) (A) (A) (A) (A) (A) (A) (A) (A) (A)
                 (A) (A) (A) (A) (A) (A) (A) (A) (A) (A) (A) (A)
                 (A) (A) (A) (A) (A) (A) (A) (A) (A) (A) (A) (A)
                 (A) (A) (A) (A) (A) (A) (A) (A) (A) (A) (A) (A)
                 (A) (A) (A) (A) (A) (A) (A) (A) (A) (A) (A) (A)
                 (A) (A) (A) (A) (A) (A) (A) (A) (A) (A) (A) (A)
                 (A) (A) (A) (A) (A) (A) (A) (A) (A) (A) (A) (A)
                 (A) (A) (A) (A) (A) (A) (A) (A) (A) (A) (A) (A)
                 (A) (A) (A) (A) (A) (A) (A) (A) (A) (A) (A) (A)
                 (A) (A) (A) (A) (A) (A) (A) (A) (A) (A) (A) (A)
                 (A) (A) (A) (A) (A) (A) (A) (A) (A) (A) (A) (A)
                 (A) (A) (A) (A) (A) (A) (A) (A) (A) (A) (A) (A)
                 (A) (A) (A) (A) (A) (A) (A) (A) (A) (A) (A) (A)
                 (A) (A) (A) (A) (A) (A) (A) (A) (A) (A) (A) (A)
                 (A) (A) (A) (A) (A) (A) (A) (A) (A) (A) (A) (A)
                 (A) (A) (A) (A) (A) (A) (A) (A) (A) (A) (A) (A)
                 (A) (A) (A) (A) (A) (A) (A) (A) (A) (A) (A) (A)
                 (A) (A) (A) (A) (A) (A) (A) (A) (A) (A) (A) (A)
                 (A) (A) (A) (A) (A) (A) (A) (A) (A) (A) (A) (A)
                 (A) (A) (A) (A) (A) (A) (A) (A) (A) (A) (A) (A)
                 (A) (A) (A) (A) (A) (A) (A) (A) (A) (A) (A) (A)
                 (A) (A) (A) (A) (A) (A) (A) (A) (A) (A) (A) (A)
                 (A)
 The electronic state is 1-A.
 Alpha  occ. eigenvalues --  -91.92619 -91.91607 -20.42661 -20.29500 -20.25976
 Alpha  occ. eigenvalues --  -15.52179 -15.51788 -11.29112 -11.25502 -11.23451
 Alpha  occ. eigenvalues --  -11.22667 -11.21457 -11.21062 -11.19433 -11.18469
 Alpha  occ. eigenvalues --  -11.18244 -11.18071 -11.17854 -11.12888 -11.10960
 Alpha  occ. eigenvalues --  -11.07504  -8.93766  -8.92606  -6.62021  -6.61924
 Alpha  occ. eigenvalues --   -6.61726  -6.60883  -6.60749  -6.60547  -1.27012
 Alpha  occ. eigenvalues --   -1.23808  -1.16373  -1.15953  -1.08260  -1.06771
 Alpha  occ. eigenvalues --   -1.02861  -1.02048  -0.99302  -0.95284  -0.92691
 Alpha  occ. eigenvalues --   -0.91771  -0.85460  -0.79659  -0.76771  -0.74649
 Alpha  occ. eigenvalues --   -0.72420  -0.70249  -0.68973  -0.63920  -0.61538
 Alpha  occ. eigenvalues --   -0.60489  -0.59822  -0.56951  -0.56764  -0.54957
 Alpha  occ. eigenvalues --   -0.54357  -0.53705  -0.52687  -0.50894  -0.50517
 Alpha  occ. eigenvalues --   -0.48842  -0.48666  -0.48001  -0.46177  -0.45976
 Alpha  occ. eigenvalues --   -0.43254  -0.42583  -0.41768  -0.40390  -0.39969
 Alpha  occ. eigenvalues --   -0.37985  -0.36919  -0.36097  -0.34818  -0.34151
 Alpha  occ. eigenvalues --   -0.33962  -0.32079  -0.31017  -0.30649  -0.26142
 Alpha  occ. eigenvalues --   -0.22400  -0.19893  -0.17522  -0.16581
 Alpha virt. eigenvalues --    0.16416   0.19526   0.20792   0.22020   0.22975
 Alpha virt. eigenvalues --    0.24750   0.27089   0.29514   0.30058   0.30235
 Alpha virt. eigenvalues --    0.31926   0.32571   0.33112   0.34907   0.37031
 Alpha virt. eigenvalues --    0.37226   0.38236   0.39206   0.40344   0.42007
 Alpha virt. eigenvalues --    0.42497   0.43361   0.44361   0.44628   0.46004
 Alpha virt. eigenvalues --    0.47612   0.49846   0.50411   0.51734   0.53522
 Alpha virt. eigenvalues --    0.55005   0.55408   0.55982   0.57136   0.58019
 Alpha virt. eigenvalues --    0.58159   0.59755   0.60046   0.62977   0.64360
 Alpha virt. eigenvalues --    0.64784   0.65652   0.67466   0.69276   0.70682
 Alpha virt. eigenvalues --    0.71933   0.74385   0.76187   0.76582   0.78237
 Alpha virt. eigenvalues --    0.79125   0.80335   0.80696   0.81189   0.82749
 Alpha virt. eigenvalues --    0.83850   0.85096   0.86623   0.87511   0.88398
 Alpha virt. eigenvalues --    0.88846   0.89361   0.89858   0.91978   0.92592
 Alpha virt. eigenvalues --    0.93167   0.94597   0.95556   0.96444   0.97206
 Alpha virt. eigenvalues --    0.98711   0.99799   1.00076   1.02045   1.03027
 Alpha virt. eigenvalues --    1.03894   1.04889   1.05285   1.06377   1.07535
 Alpha virt. eigenvalues --    1.08008   1.09484   1.10055   1.11273   1.11773
 Alpha virt. eigenvalues --    1.12294   1.13564   1.14484   1.15101   1.15794
 Alpha virt. eigenvalues --    1.17054   1.18088   1.18677   1.19236   1.19402
 Alpha virt. eigenvalues --    1.19709   1.20452   1.21409   1.22154   1.22884
 Alpha virt. eigenvalues --    1.23203   1.24732   1.25285   1.25691   1.26700
 Alpha virt. eigenvalues --    1.27261   1.27470   1.28282   1.28998   1.30161
 Alpha virt. eigenvalues --    1.30982   1.31873   1.33585   1.34503   1.35823
 Alpha virt. eigenvalues --    1.36086   1.37863   1.38325   1.38610   1.39384
 Alpha virt. eigenvalues --    1.41460   1.42957   1.45028   1.45876   1.46626
 Alpha virt. eigenvalues --    1.48283   1.48880   1.51081   1.53714   1.55322
 Alpha virt. eigenvalues --    1.55798   1.58190   1.58553   1.59533   1.60018
 Alpha virt. eigenvalues --    1.61533   1.63590   1.64845   1.66393   1.67474
 Alpha virt. eigenvalues --    1.68483   1.72954   1.74926   1.77405   1.78093
 Alpha virt. eigenvalues --    1.79420   1.79723   1.82235   1.82649   1.83935
 Alpha virt. eigenvalues --    1.85647   1.90102   1.91286   1.93715   1.96247
 Alpha virt. eigenvalues --    1.98108   2.00580   2.03794   2.04178   2.04990
 Alpha virt. eigenvalues --    2.06517   2.09537   2.10402   2.13628   2.15014
 Alpha virt. eigenvalues --    2.18030   2.19425   2.20360   2.22623   2.22942
 Alpha virt. eigenvalues --    2.23769   2.26152   2.27552   2.28723   2.29362
 Alpha virt. eigenvalues --    2.30177   2.30780   2.31051   2.32199   2.33759
 Alpha virt. eigenvalues --    2.36417   2.38826   2.39562   2.40031   2.41122
 Alpha virt. eigenvalues --    2.43068   2.44387   2.45416   2.47374   2.49224
 Alpha virt. eigenvalues --    2.49463   2.51515   2.51822   2.52766   2.55447
 Alpha virt. eigenvalues --    2.56679   2.56929   2.57907   2.59561   2.61243
 Alpha virt. eigenvalues --    2.63190   2.64825   2.66183   2.68856   2.69453
 Alpha virt. eigenvalues --    2.69980   2.73550   2.75851   2.78013   2.81191
 Alpha virt. eigenvalues --    2.83561   2.84929   2.87092   2.87598   2.89204
 Alpha virt. eigenvalues --    2.90200   2.90798   2.93978   3.00537   3.02045
 Alpha virt. eigenvalues --    3.02805   3.06081   3.06961   3.07648   3.09681
 Alpha virt. eigenvalues --    3.13081   3.19213   3.20316   3.23018   3.23561
 Alpha virt. eigenvalues --    3.25791   3.26711   3.29528   3.35367   3.39031
 Alpha virt. eigenvalues --    3.40086   3.42427   3.45701   3.49564   3.57825
 Alpha virt. eigenvalues --    3.59827   3.71073   3.73732   3.86626   4.34060
 Alpha virt. eigenvalues --    4.44563   4.48677   4.55024   4.57599   4.58498
 Alpha virt. eigenvalues --    4.59755   4.60534   4.65837   4.67446   4.69775
 Alpha virt. eigenvalues --    4.69867   4.75465   4.84671   4.86507   4.86795
 Alpha virt. eigenvalues --    4.88339   4.95221   5.05614   5.17015   5.24624
          Condensed to atoms (all electrons):
              1          2          3          4          5          6
     1  C    4.904830   0.541607  -0.035182   0.573400  -0.039631  -0.062282
     2  C    0.541607   4.980022  -0.046198  -0.043481   0.554253  -0.034739
     3  C   -0.035182  -0.046198   4.957265  -0.014939   0.582017   0.474330
     4  C    0.573400  -0.043481  -0.014939   4.543629  -0.025553   0.516402
     5  C   -0.039631   0.554253   0.582017  -0.025553   4.476178  -0.037767
     6  C   -0.062282  -0.034739   0.474330   0.516402  -0.037767   5.284482
     7  C    0.004041  -0.000021   0.002370  -0.107725  -0.000080  -0.054101
     8  C    0.000000   0.000000   0.000000   0.000000   0.000000   0.000000
     9  C    0.000000   0.000000   0.000000   0.000001   0.000000  -0.000015
    10  C   -0.000056   0.001857  -0.000547   0.000005  -0.022070   0.000180
    11  C    0.000000   0.000000   0.000000   0.000000   0.000001   0.000000
    12  C    0.000001   0.000000  -0.000001  -0.000101   0.000000   0.000328
    13  C    0.000000  -0.000216  -0.000008   0.000000   0.006182  -0.000005
    14  C    0.000000   0.000004   0.000006   0.000000  -0.000171   0.000000
    15  N   -0.046995   0.002969   0.007148   0.402748  -0.000406  -0.092348
    16  N    0.003102  -0.054922  -0.048139   0.000198   0.211991   0.003943
    17  O   -0.000008   0.000049  -0.003188   0.000008   0.004374   0.000078
    18  O    0.000000   0.000000   0.000000   0.000000   0.000000   0.000000
    19  O    0.000000   0.000000   0.000000   0.000000   0.000000   0.000000
    20  S    0.004615   0.000190  -0.042939  -0.071865   0.001687   0.269717
    21  S   -0.000060   0.000003   0.000000   0.003365   0.000000   0.002803
    22  H    0.000018  -0.001388   0.002246  -0.000002  -0.024215  -0.000052
    23  H    0.000000   0.000000   0.000001   0.000000   0.000004   0.000000
    24  H    0.000000   0.000000  -0.000001   0.000000   0.000003   0.000000
    25  H    0.000000  -0.000044   0.000005   0.000000   0.000297   0.000000
    26  H    0.000000   0.000004  -0.000011   0.000000  -0.000071  -0.000001
    27  H    0.000000   0.000000   0.000000   0.000002   0.000000  -0.000002
    28  H    0.000000   0.000000   0.000005  -0.000024   0.000000  -0.000043
    29  H    0.000000   0.000000   0.000000   0.000000   0.000000  -0.000002
    30  H    0.000000   0.000000   0.000000   0.000000   0.000000   0.000000
    31  H    0.000000   0.000000   0.000000   0.000000   0.000000   0.000000
    32  H    0.000112   0.002863   0.368325   0.000957  -0.012238  -0.032442
    33  H   -0.024271   0.376447   0.003110   0.001525  -0.032215   0.000210
    34  H    0.372685  -0.030438  -0.000111  -0.025759   0.001835   0.004618
              7          8          9         10         11         12
     1  C    0.004041   0.000000   0.000000  -0.000056   0.000000   0.000001
     2  C   -0.000021   0.000000   0.000000   0.001857   0.000000   0.000000
     3  C    0.002370   0.000000   0.000000  -0.000547   0.000000  -0.000001
     4  C   -0.107725   0.000000   0.000001   0.000005   0.000000  -0.000101
     5  C   -0.000080   0.000000   0.000000  -0.022070   0.000001   0.000000
     6  C   -0.054101   0.000000  -0.000015   0.000180   0.000000   0.000328
     7  C    5.244390  -0.000006   0.000252   0.000000   0.000000  -0.012358
     8  C   -0.000006   5.041245   0.653385   0.000000   0.000000  -0.053228
     9  C    0.000252   0.653385   4.979164   0.000000   0.000000   0.313157
    10  C    0.000000   0.000000   0.000000   4.285708   0.001510   0.000000
    11  C    0.000000   0.000000   0.000000   0.001510   3.995118   0.000000
    12  C   -0.012358  -0.053228   0.313157   0.000000   0.000000   5.373630
    13  C    0.000000   0.000000   0.000000   0.311651  -0.029699   0.000000
    14  C    0.000000   0.000000   0.000000  -0.028985   0.279086   0.000000
    15  N    0.503579   0.000000   0.000003   0.000000   0.000000   0.001665
    16  N    0.000000   0.000000   0.000000   0.215247  -0.000044   0.000000
    17  O    0.000000   0.000000   0.000000   0.566331  -0.000216   0.000000
    18  O    0.000000   0.000000   0.000000   0.000436   0.539570   0.000000
    19  O    0.000000   0.000000   0.000000  -0.000023   0.501896   0.000000
    20  S    0.270835  -0.000039   0.000182  -0.000006   0.000000  -0.011917
    21  S    0.235840   0.004357  -0.059102   0.000000   0.000000   0.219370
    22  H    0.000000   0.000000   0.000000  -0.014936   0.000005   0.000000
    23  H    0.000000   0.000000   0.000000   0.000517  -0.020816   0.000000
    24  H    0.000000   0.000000   0.000000   0.000134  -0.016893   0.000000
    25  H    0.000000   0.000000   0.000000  -0.061295   0.000436   0.000000
    26  H    0.000000   0.000000   0.000000  -0.027078  -0.002138   0.000000
    27  H    0.001717   0.001764  -0.056774   0.000000   0.000000   0.396587
    28  H   -0.007961  -0.004879  -0.038533   0.000000   0.000000   0.373557
    29  H    0.000330  -0.039736   0.397766   0.000000   0.000000  -0.037865
    30  H   -0.000002   0.399329  -0.050455   0.000000   0.000000  -0.004887
    31  H    0.000001   0.398846  -0.040170   0.000000   0.000000   0.003364
    32  H   -0.000015   0.000000   0.000000   0.003742   0.000000   0.000000
    33  H    0.000003   0.000000   0.000000   0.000005   0.000000   0.000000
    34  H   -0.000095   0.000000   0.000000   0.000001   0.000000   0.000000
             13         14         15         16         17         18
     1  C    0.000000   0.000000  -0.046995   0.003102  -0.000008   0.000000
     2  C   -0.000216   0.000004   0.002969  -0.054922   0.000049   0.000000
     3  C   -0.000008   0.000006   0.007148  -0.048139  -0.003188   0.000000
     4  C    0.000000   0.000000   0.402748   0.000198   0.000008   0.000000
     5  C    0.006182  -0.000171  -0.000406   0.211991   0.004374   0.000000
     6  C   -0.000005   0.000000  -0.092348   0.003943   0.000078   0.000000
     7  C    0.000000   0.000000   0.503579   0.000000   0.000000   0.000000
     8  C    0.000000   0.000000   0.000000   0.000000   0.000000   0.000000
     9  C    0.000000   0.000000   0.000003   0.000000   0.000000   0.000000
    10  C    0.311651  -0.028985   0.000000   0.215247   0.566331   0.000436
    11  C   -0.029699   0.279086   0.000000  -0.000044  -0.000216   0.539570
    12  C    0.000000   0.000000   0.001665   0.000000   0.000000   0.000000
    13  C    5.455406   0.179976   0.000000  -0.100316  -0.073950   0.008981
    14  C    0.179976   5.534044   0.000000   0.003612  -0.004049  -0.124604
    15  N    0.000000   0.000000   6.872287  -0.000001   0.000000   0.000000
    16  N   -0.100316   0.003612  -0.000001   7.442365  -0.096332  -0.000002
    17  O   -0.073950  -0.004049   0.000000  -0.096332   8.225839   0.000007
    18  O    0.008981  -0.124604   0.000000  -0.000002   0.000007   8.380328
    19  O    0.004881  -0.119078   0.000000   0.000000  -0.000002  -0.098416
    20  S    0.000000   0.000000  -0.074414  -0.000065  -0.000008   0.000000
    21  S    0.000000   0.000000  -0.052534   0.000000   0.000000   0.000000
    22  H   -0.000186   0.000236   0.000000   0.322396   0.002163   0.000001
    23  H   -0.063278   0.390741   0.000000   0.000798   0.005422   0.001560
    24  H   -0.048400   0.374611   0.000000   0.000076   0.000255   0.001305
    25  H    0.384540  -0.037276   0.000000   0.004356   0.003191  -0.000184
    26  H    0.376329  -0.034860   0.000000   0.001514   0.000120   0.017437
    27  H    0.000000   0.000000  -0.000021   0.000000   0.000000   0.000000
    28  H    0.000000   0.000000  -0.000004   0.000000   0.000000   0.000000
    29  H    0.000000   0.000000  -0.000002   0.000000   0.000000   0.000000
    30  H    0.000000   0.000000   0.000000   0.000000   0.000000   0.000000
    31  H    0.000000   0.000000   0.000000   0.000000   0.000000   0.000000
    32  H   -0.000037   0.000002  -0.000058  -0.005615   0.007218   0.000000
    33  H    0.000001   0.000000  -0.000054  -0.001972   0.000000   0.000000
    34  H    0.000000   0.000000   0.000393  -0.000074   0.000000   0.000000
             19         20         21         22         23         24
     1  C    0.000000   0.004615  -0.000060   0.000018   0.000000   0.000000
     2  C    0.000000   0.000190   0.000003  -0.001388   0.000000   0.000000
     3  C    0.000000  -0.042939   0.000000   0.002246   0.000001  -0.000001
     4  C    0.000000  -0.071865   0.003365  -0.000002   0.000000   0.000000
     5  C    0.000000   0.001687   0.000000  -0.024215   0.000004   0.000003
     6  C    0.000000   0.269717   0.002803  -0.000052   0.000000   0.000000
     7  C    0.000000   0.270835   0.235840   0.000000   0.000000   0.000000
     8  C    0.000000  -0.000039   0.004357   0.000000   0.000000   0.000000
     9  C    0.000000   0.000182  -0.059102   0.000000   0.000000   0.000000
    10  C   -0.000023  -0.000006   0.000000  -0.014936   0.000517   0.000134
    11  C    0.501896   0.000000   0.000000   0.000005  -0.020816  -0.016893
    12  C    0.000000  -0.011917   0.219370   0.000000   0.000000   0.000000
    13  C    0.004881   0.000000   0.000000  -0.000186  -0.063278  -0.048400
    14  C   -0.119078   0.000000   0.000000   0.000236   0.390741   0.374611
    15  N    0.000000  -0.074414  -0.052534   0.000000   0.000000   0.000000
    16  N    0.000000  -0.000065   0.000000   0.322396   0.000798   0.000076
    17  O   -0.000002  -0.000008   0.000000   0.002163   0.005422   0.000255
    18  O   -0.098416   0.000000   0.000000   0.000001   0.001560   0.001305
    19  O    8.528823   0.000000   0.000000   0.000000   0.003846   0.000306
    20  S    0.000000  15.397410  -0.049277   0.000002   0.000000   0.000000
    21  S    0.000000  -0.049277  15.521104   0.000000   0.000000   0.000000
    22  H    0.000000   0.000002   0.000000   0.315578   0.000045  -0.000122
    23  H    0.003846   0.000000   0.000000   0.000045   0.491608  -0.016840
    24  H    0.000306   0.000000   0.000000  -0.000122  -0.016840   0.564752
    25  H   -0.000043   0.000000   0.000000   0.002908   0.003608  -0.006635
    26  H    0.000375   0.000000   0.000000  -0.000005   0.001840   0.003848
    27  H    0.000000   0.000306  -0.039186   0.000000   0.000000   0.000000
    28  H    0.000000   0.004028  -0.030556   0.000000   0.000000   0.000000
    29  H    0.000000   0.000273  -0.002988   0.000000   0.000000   0.000000
    30  H    0.000000  -0.000002   0.000141   0.000000   0.000000   0.000000
    31  H    0.000000   0.000001  -0.000166   0.000000   0.000000   0.000000
    32  H    0.000000  -0.000242   0.000000  -0.000073   0.000000   0.000000
    33  H    0.000000   0.000013   0.000000   0.002744   0.000000   0.000000
    34  H    0.000000  -0.000124   0.000000  -0.000004   0.000000   0.000000
             25         26         27         28         29         30
     1  C    0.000000   0.000000   0.000000   0.000000   0.000000   0.000000
     2  C   -0.000044   0.000004   0.000000   0.000000   0.000000   0.000000
     3  C    0.000005  -0.000011   0.000000   0.000005   0.000000   0.000000
     4  C    0.000000   0.000000   0.000002  -0.000024   0.000000   0.000000
     5  C    0.000297  -0.000071   0.000000   0.000000   0.000000   0.000000
     6  C    0.000000  -0.000001  -0.000002  -0.000043  -0.000002   0.000000
     7  C    0.000000   0.000000   0.001717  -0.007961   0.000330  -0.000002
     8  C    0.000000   0.000000   0.001764  -0.004879  -0.039736   0.399329
     9  C    0.000000   0.000000  -0.056774  -0.038533   0.397766  -0.050455
    10  C   -0.061295  -0.027078   0.000000   0.000000   0.000000   0.000000
    11  C    0.000436  -0.002138   0.000000   0.000000   0.000000   0.000000
    12  C    0.000000   0.000000   0.396587   0.373557  -0.037865  -0.004887
    13  C    0.384540   0.376329   0.000000   0.000000   0.000000   0.000000
    14  C   -0.037276  -0.034860   0.000000   0.000000   0.000000   0.000000
    15  N    0.000000   0.000000  -0.000021  -0.000004  -0.000002   0.000000
    16  N    0.004356   0.001514   0.000000   0.000000   0.000000   0.000000
    17  O    0.003191   0.000120   0.000000   0.000000   0.000000   0.000000
    18  O   -0.000184   0.017437   0.000000   0.000000   0.000000   0.000000
    19  O   -0.000043   0.000375   0.000000   0.000000   0.000000   0.000000
    20  S    0.000000   0.000000   0.000306   0.004028   0.000273  -0.000002
    21  S    0.000000   0.000000  -0.039186  -0.030556  -0.002988   0.000141
    22  H    0.002908  -0.000005   0.000000   0.000000   0.000000   0.000000
    23  H    0.003608   0.001840   0.000000   0.000000   0.000000   0.000000
    24  H   -0.006635   0.003848   0.000000   0.000000   0.000000   0.000000
    25  H    0.593731  -0.018068   0.000000   0.000000   0.000000   0.000000
    26  H   -0.018068   0.437844   0.000000   0.000000   0.000000   0.000000
    27  H    0.000000   0.000000   0.487912  -0.014058   0.002518   0.002871
    28  H    0.000000   0.000000  -0.014058   0.479917   0.001591   0.000425
    29  H    0.000000   0.000000   0.002518   0.001591   0.474801   0.003743
    30  H    0.000000   0.000000   0.002871   0.000425   0.003743   0.501481
    31  H    0.000000   0.000000   0.000013  -0.000130  -0.004685  -0.022487
    32  H   -0.000009   0.000006   0.000000   0.000000   0.000000   0.000000
    33  H   -0.000007   0.000000   0.000000   0.000000   0.000000   0.000000
    34  H    0.000000   0.000000   0.000000   0.000000   0.000000   0.000000
             31         32         33         34
     1  C    0.000000   0.000112  -0.024271   0.372685
     2  C    0.000000   0.002863   0.376447  -0.030438
     3  C    0.000000   0.368325   0.003110  -0.000111
     4  C    0.000000   0.000957   0.001525  -0.025759
     5  C    0.000000  -0.012238  -0.032215   0.001835
     6  C    0.000000  -0.032442   0.000210   0.004618
     7  C    0.000001  -0.000015   0.000003  -0.000095
     8  C    0.398846   0.000000   0.000000   0.000000
     9  C   -0.040170   0.000000   0.000000   0.000000
    10  C    0.000000   0.003742   0.000005   0.000001
    11  C    0.000000   0.000000   0.000000   0.000000
    12  C    0.003364   0.000000   0.000000   0.000000
    13  C    0.000000  -0.000037   0.000001   0.000000
    14  C    0.000000   0.000002   0.000000   0.000000
    15  N    0.000000  -0.000058  -0.000054   0.000393
    16  N    0.000000  -0.005615  -0.001972  -0.000074
    17  O    0.000000   0.007218   0.000000   0.000000
    18  O    0.000000   0.000000   0.000000   0.000000
    19  O    0.000000   0.000000   0.000000   0.000000
    20  S    0.000001  -0.000242   0.000013  -0.000124
    21  S   -0.000166   0.000000   0.000000   0.000000
    22  H    0.000000  -0.000073   0.002744  -0.000004
    23  H    0.000000   0.000000   0.000000   0.000000
    24  H    0.000000   0.000000   0.000000   0.000000
    25  H    0.000000  -0.000009  -0.000007   0.000000
    26  H    0.000000   0.000006   0.000000   0.000000
    27  H    0.000013   0.000000   0.000000   0.000000
    28  H   -0.000130   0.000000   0.000000   0.000000
    29  H   -0.004685   0.000000   0.000000   0.000000
    30  H   -0.022487   0.000000   0.000000   0.000000
    31  H    0.484185   0.000000   0.000000   0.000000
    32  H    0.000000   0.407533  -0.000087   0.000008
    33  H    0.000000  -0.000087   0.469794  -0.001930
    34  H    0.000000   0.000008  -0.001930   0.462559
 Mulliken atomic charges:
              1
     1  C   -0.195925
     2  C   -0.248821
     3  C   -0.205566
     4  C    0.247211
     5  C    0.355597
     6  C   -0.243293
     7  C   -0.080993
     8  C   -0.401037
     9  C   -0.098859
    10  C    0.767674
    11  C    0.752184
    12  C   -0.561302
    13  C   -0.411853
    14  C   -0.413294
    15  N   -0.523955
    16  N   -0.902116
    17  O   -0.637303
    18  O   -0.726417
    19  O   -0.822564
    20  S    0.301640
    21  S    0.246884
    22  H    0.392642
    23  H    0.200946
    24  H    0.143600
    25  H    0.130489
    26  H    0.242913
    27  H    0.216351
    28  H    0.236664
    29  H    0.204259
    30  H    0.169843
    31  H    0.181229
    32  H    0.260049
    33  H    0.206685
    34  H    0.216438
 Sum of Mulliken charges=  -1.00000
 Atomic charges with hydrogens summed into heavy atoms:
              1
     1  C    0.020513
     2  C   -0.042136
     3  C    0.054483
     4  C    0.247211
     5  C    0.355597
     6  C   -0.243293
     7  C   -0.080993
     8  C   -0.049965
     9  C    0.105400
    10  C    0.767674
    11  C    0.752184
    12  C   -0.108287
    13  C   -0.038450
    14  C   -0.068748
    15  N   -0.523955
    16  N   -0.509474
    17  O   -0.637303
    18  O   -0.726417
    19  O   -0.822564
    20  S    0.301640
    21  S    0.246884
    22  H    0.000000
    23  H    0.000000
    24  H    0.000000
    25  H    0.000000
    26  H    0.000000
    27  H    0.000000
    28  H    0.000000
    29  H    0.000000
    30  H    0.000000
    31  H    0.000000
    32  H    0.000000
    33  H    0.000000
    34  H    0.000000
 Sum of Mulliken charges=  -1.00000
 Entering OneElI...
 OneElI was handed  6101752 working-precision words.
 Multipole integrals L=0 to 4 MinM= 0 MaxM= 0.
 Requested accuracy = 0.1000D-12
 PrsmSu:  NPrtUS=   1 ThrOK=F
 PRISM was handed     5705321 working-precision words and  3881 shell-pairs
 Electronic moments (au):
  -168.00000000   -12.30056701     2.34944662     1.70422676
-12385.31210331 -1293.77465761  -348.82464227    54.35488537
    15.13073527     3.34219888-23258.64508527  -631.22214536
   -45.42846759  2793.38556985 20849.55266023   439.21720323
  -183.69758057   314.17112864  -902.09359869 -1324.47320864
***************-27610.48264012 -2145.85121143 12752.67481524
 45662.46054450-11093.16503530   720.47655207  1501.30287278
   305.52947274***************-34657.72062608 -3033.52453333
 17417.29951345  3523.86587140 -1170.35448115
 Electronic spatial extent (au):  <R**2>= 14027.9114
 Nuclear    moments (au):
   167.00000000     0.00000000     0.00000000     0.00000000
 12092.94991492  1185.16245690   239.05975995     0.00000000
     0.00000000     0.00000000 20545.37602237   665.13952777
    54.76395352 -2876.26009938-20402.87616832  -255.37767182
   126.30555823  -311.63931128   901.47039478  1334.37949313
*************** 22994.99585991   904.32556373 -3762.00695455
-43018.98729326 11609.40158078  -572.62391864 -1529.75734996
  -318.24023534 91555.00665911 26311.82695275  2017.72404904
-17181.50160717 -3563.67831077  1406.02587225
 Total      moments (au):
    -1.00000000   -12.30056701     2.34944662     1.70422676
  -292.36218838  -108.61220071  -109.76488231    54.35488537
    15.13073527     3.34219888 -2713.26906290    33.91738242
     9.33548593   -82.87452954   446.67649191   183.83953141
   -57.39202234     2.53181736    -0.62320391     9.90628450
-84950.55857345 -4615.48678021 -1241.52564770  8990.66786069
  2643.47325124   516.23654548   147.85263343   -28.45447717
   -12.71076261 -9656.84396754 -8345.89367333 -1015.80048429
   235.79790629   -39.81243937   235.67139109
 Charge=    -1.0000 electrons
 Dipole moment (field-independent basis, Debye):
    X=   -31.2649    Y=     5.9717    Z=     4.3317  Tot=    32.1235
 Quadrupole moment (field-independent basis, Debye-Ang):
   XX=  -393.2371   YY=  -146.0871   ZZ=  -147.6375
   XY=    73.1092   XZ=    20.3514   YZ=     4.4954
 Traceless Quadrupole moment (field-independent basis, Debye-Ang):
   XX=  -164.2499   YY=    82.9001   ZZ=    81.3497
   XY=    73.1092   XZ=    20.3514   YZ=     4.4954
 Octapole moment (field-independent basis, Debye-Ang**2):
  XXX= -1931.2002  YYY=    24.1411  ZZZ=     6.6446  XYY=   -58.9869
  XXY=   317.9271  XXZ=   130.8499  XZZ=   -40.8494  YZZ=     1.8020
  YYZ=    -0.4436  XYZ=     7.0509
 Hexadecapole moment (field-independent basis, Debye-Ang**3):
 XXXX=-31996.4512 YYYY= -1738.4135 ZZZZ=  -467.6181 XXXY=  3386.3163
 XXXZ=   995.6587 YYYX=   194.4394 YYYZ=    55.6884 ZZZX=   -10.7173
 ZZZY=    -4.7875 XXYY= -3637.2302 XXZZ= -3143.4635 YYZZ=  -382.5991
 XXYZ=    88.8128 YYXZ=   -14.9953 ZZXY=    88.7651
 N-N= 1.733170781887D+03 E-N=-7.416159521722D+03  KE= 1.664364959443D+03
 Entering OneElI...
 OneElI was handed  5856951 working-precision words.
 Calculate electrostatic properties
    NBasis =   349  MinDer = 0  MaxDer = 0
    NGrid  =    34  NMatD  =   1
 Requested accuracy = 0.1000D-12
 PrsmSu:  NPrtUS=   1 ThrOK=F
 PRISM was handed     5491972 working-precision words and  3448 shell-pairs
 --------------------------------------------------------
       Center         ----      EFG at Nuclei      ----
                      3XX-RR        3YY-RR        3ZZ-RR
 --------------------------------------------------------
     1   Atom        0.180772      0.117658     -0.298430
     2   Atom        0.142321      0.088521     -0.230842
     3   Atom        0.084527      0.136652     -0.221179
     4   Atom       -0.027903      0.190978     -0.163075
     5   Atom       -0.062707      0.292279     -0.229573
     6   Atom        0.120861      0.050209     -0.171070
     7   Atom        0.037153      0.157935     -0.195088
     8   Atom       -0.069963      0.028895      0.041068
     9   Atom       -0.079071      0.055916      0.023156
    10   Atom        0.186391     -0.223455      0.037065
    11   Atom        0.023960     -0.062045      0.038085
    12   Atom        0.131519     -0.234954      0.103434
    13   Atom       -0.018600      0.053632     -0.035032
    14   Atom       -0.035183      0.048865     -0.013682
    15   Atom       -0.073422      0.579619     -0.506197
    16   Atom       -0.567340      0.087067      0.480273
    17   Atom        0.993109      0.040889     -1.033998
    18   Atom        0.876475     -0.534420     -0.342056
    19   Atom       -0.267657      0.775351     -0.507694
    20   Atom       -2.056630      0.045399      2.011231
    21   Atom       -1.546432     -1.077174      2.623606
    22   Atom        0.036482     -0.038335      0.001853
    23   Atom        0.097300      0.144214     -0.241514
    24   Atom        0.083029     -0.199487      0.116458
    25   Atom        0.137599      0.009569     -0.147168
    26   Atom        0.141062     -0.250807      0.109745
    27   Atom        0.000560      0.102082     -0.102642
    28   Atom       -0.191966      0.044634      0.147332
    29   Atom        0.132040      0.024926     -0.156965
    30   Atom        0.131108      0.013743     -0.144852
    31   Atom        0.081124      0.126150     -0.207274
    32   Atom        0.090553     -0.253918      0.163364
    33   Atom       -0.038927     -0.114159      0.153086
    34   Atom        0.094786     -0.256797      0.162011
 --------------------------------------------------------
                        XY            XZ            YZ
 --------------------------------------------------------
     1   Atom       -0.014975      0.071580      0.063090
     2   Atom       -0.036635      0.034010      0.069480
     3   Atom       -0.032640      0.051956      0.070789
     4   Atom        0.071554      0.029988      0.063321
     5   Atom        0.041376      0.038846      0.106009
     6   Atom       -0.220344      0.012909     -0.000971
     7   Atom        0.129361      0.051300      0.065433
     8   Atom        0.232517     -0.054116      0.013502
     9   Atom        0.277141     -0.041281      0.059961
    10   Atom       -0.210221      0.371108      0.294984
    11   Atom       -0.248520     -0.261284     -0.333261
    12   Atom       -0.058617      0.005892      0.024243
    13   Atom        0.016414     -0.100317     -0.024118
    14   Atom       -0.101889      0.095588      0.003052
    15   Atom       -0.582963     -0.050114      0.065529
    16   Atom        0.140399     -0.215865     -0.692924
    17   Atom       -1.135111      0.125665     -0.177041
    18   Atom       -0.459589     -0.745752      0.522435
    19   Atom       -0.711050      0.921819     -0.468699
    20   Atom        0.421260     -0.495737     -0.265322
    21   Atom       -1.088714     -0.697181      0.261296
    22   Atom       -0.165381     -0.187999     -0.269238
    23   Atom        0.008481     -0.120717      0.023894
    24   Atom       -0.145031     -0.038930     -0.107666
    25   Atom       -0.004544     -0.022725     -0.204263
    26   Atom       -0.014986      0.001506      0.105832
    27   Atom       -0.074563     -0.188843     -0.086112
    28   Atom        0.162133      0.030048     -0.013044
    29   Atom       -0.061233     -0.073788     -0.194022
    30   Atom       -0.069178     -0.082175     -0.200452
    31   Atom       -0.052071      0.164691      0.089791
    32   Atom        0.136160      0.002696     -0.037612
    33   Atom       -0.214257     -0.062793     -0.070113
    34   Atom        0.145350      0.011174     -0.042036
 --------------------------------------------------------


 ---------------------------------------------------------------------------------
              Nuclear Quadrupole in Principal Axis System
 ---------------------------------------------------------------------------------

       Atom             a.u.   MegaHertz   Gauss  10(-4) cm-1        Axes

              Baa    -0.3185   -42.735   -15.249   -14.255 -0.1447 -0.1465  0.9786
     1 C(13)  Bbb     0.1267    17.006     6.068     5.673  0.0649  0.9854  0.1572
              Bcc     0.1917    25.728     9.180     8.582  0.9873 -0.0863  0.1331
 
              Baa    -0.2496   -33.490   -11.950   -11.171 -0.1041 -0.2110  0.9719
     2 C(13)  Bbb     0.0887    11.902     4.247     3.970  0.4421  0.8656  0.2353
              Bcc     0.1609    21.588     7.703     7.201  0.8909 -0.4542 -0.0032
 
              Baa    -0.2446   -32.828   -11.714   -10.950 -0.1717 -0.1940  0.9659
     3 C(13)  Bbb     0.0868    11.649     4.157     3.886  0.9301  0.2912  0.2238
              Bcc     0.1578    21.178     7.557     7.064 -0.3247  0.9368  0.1305
 
              Baa    -0.1763   -23.659    -8.442    -7.892 -0.1288 -0.1441  0.9812
     4 C(13)  Bbb    -0.0484    -6.490    -2.316    -2.165  0.9491 -0.3048  0.0798
              Bcc     0.2247    30.149    10.758    10.057  0.2876  0.9414  0.1760
 
              Baa    -0.2551   -34.235   -12.216   -11.420 -0.1583 -0.1762  0.9716
     5 C(13)  Bbb    -0.0639    -8.580    -3.062    -2.862  0.9794 -0.1530  0.1318
              Bcc     0.3191    42.816    15.278    14.282  0.1254  0.9724  0.1968
 
              Baa    -0.1729   -23.208    -8.281    -7.741 -0.1532 -0.1470  0.9772
     6 C(13)  Bbb    -0.1360   -18.246    -6.511    -6.086  0.6303  0.7471  0.2112
              Bcc     0.3089    41.454    14.792    13.828  0.7611 -0.6483  0.0218
 
              Baa    -0.2107   -28.270   -10.087    -9.430 -0.1375 -0.1261  0.9824
     7 C(13)  Bbb    -0.0448    -6.017    -2.147    -2.007  0.8353 -0.5479  0.0466
              Bcc     0.2555    34.287    12.234    11.437  0.5324  0.8270  0.1807
 
              Baa    -0.2666   -35.773   -12.765   -11.933  0.7718 -0.6147  0.1627
     8 C(13)  Bbb     0.0462     6.202     2.213     2.069 -0.0414  0.2068  0.9775
              Bcc     0.2204    29.572    10.552     9.864  0.6346  0.7611 -0.1342
 
              Baa    -0.3113   -41.773   -14.906   -13.934  0.7651 -0.6107  0.2039
     9 C(13)  Bbb     0.0357     4.793     1.710     1.599 -0.2150  0.0562  0.9750
              Bcc     0.2756    36.981    13.196    12.335  0.6069  0.7898  0.0884
 
              Baa    -0.6075   -81.514   -29.086   -27.190  0.4493  0.6858 -0.5726
    10 C(13)  Bbb     0.1161    15.579     5.559     5.197 -0.4708  0.7264  0.5007
              Bcc     0.4914    65.935    23.527    21.994  0.7593  0.0446  0.6492
 
              Baa    -0.5673   -76.122   -27.162   -25.392  0.5196  0.6337  0.5731
    11 C(13)  Bbb     0.2318    31.110    11.101    10.377  0.8085 -0.5815 -0.0902
              Bcc     0.3354    45.013    16.062    15.015 -0.2761 -0.5103  0.8145
 
              Baa    -0.2459   -32.993   -11.773   -11.005  0.1542  0.9855 -0.0710
    12 C(13)  Bbb     0.1051    14.101     5.032     4.704 -0.0467  0.0790  0.9958
              Bcc     0.1408    18.892     6.741     6.302  0.9869 -0.1502  0.0582
 
              Baa    -0.1277   -17.138    -6.115    -5.717  0.6733  0.0373  0.7384
    13 C(13)  Bbb     0.0338     4.530     1.616     1.511 -0.4478  0.8153  0.3671
              Bcc     0.0940    12.608     4.499     4.206  0.5884  0.5778 -0.5656
 
              Baa    -0.1538   -20.635    -7.363    -6.883  0.7571  0.3886 -0.5251
    14 C(13)  Bbb     0.0161     2.155     0.769     0.719  0.2183  0.6070  0.7641
              Bcc     0.1377    18.480     6.594     6.164 -0.6157  0.6932 -0.3748
 
              Baa    -0.5119   -19.744    -7.045    -6.586  0.1180  0.0034  0.9930
    15 N(14)  Bbb    -0.4140   -15.968    -5.698    -5.326  0.8549  0.5084 -0.1034
              Bcc     0.9260    35.712    12.743    11.912 -0.5052  0.8611  0.0571
 
              Baa    -0.6101   -23.531    -8.396    -7.849  0.9823 -0.0123  0.1867
    16 N(14)  Bbb    -0.4348   -16.768    -5.983    -5.593 -0.1011  0.8045  0.5853
              Bcc     1.0449    40.299    14.380    13.442 -0.1574 -0.5939  0.7890
 
              Baa    -1.0658    77.122    27.519    25.725  0.0609  0.2183  0.9740
    17 O(17)  Bbb    -0.6968    50.420    17.991    16.818  0.5555  0.8033 -0.2147
              Bcc     1.7626  -127.542   -45.510   -42.543  0.8293 -0.5542  0.0723
 
              Baa    -0.9827    71.108    25.373    23.719 -0.1059  0.7067 -0.6996
    18 O(17)  Bbb    -0.4581    33.146    11.827    11.056  0.5319  0.6347  0.5606
              Bcc     1.4408  -104.254   -37.201   -34.776  0.8402 -0.3127 -0.4431
 
              Baa    -1.3252    95.894    34.217    31.987 -0.6811 -0.0679  0.7290
    19 O(17)  Bbb    -0.1877    13.584     4.847     4.531  0.5223  0.6527  0.5488
              Bcc     1.5130  -109.478   -39.064   -36.518 -0.5131  0.7546 -0.4091
 
              Baa    -2.1839   -89.539   -31.950   -29.867  0.9794 -0.1726  0.1048
    20 S(33)  Bbb     0.0649     2.660     0.949     0.887  0.1531  0.9732  0.1717
              Bcc     2.1190    86.879    31.000    28.980 -0.1316 -0.1521  0.9796
 
              Baa    -2.4547  -100.642   -35.912   -33.571  0.7893  0.6092  0.0770
    21 S(33)  Bbb    -0.3340   -13.694    -4.886    -4.568 -0.5850  0.7841 -0.2072
              Bcc     2.7887   114.336    40.798    38.138 -0.1866  0.1185  0.9753
 
              Baa    -0.4234  -225.924   -80.615   -75.360  0.4769  0.6319  0.6109
    22 H(1)   Bbb     0.1657    88.432    31.555    29.498  0.8489 -0.5112 -0.1340
              Bcc     0.2577   137.492    49.061    45.862 -0.2277 -0.5825  0.7803
 
              Baa    -0.2816  -150.266   -53.619   -50.123  0.3042 -0.0594  0.9508
    23 H(1)   Bbb     0.1358    72.481    25.863    24.177  0.9479 -0.0803 -0.3083
              Bcc     0.1458    77.785    27.755    25.946  0.0947  0.9950  0.0319
 
              Baa    -0.2926  -156.140   -55.715   -52.083  0.3710  0.8888  0.2692
    24 H(1)   Bbb     0.1402    74.797    26.689    24.950  0.8155 -0.1732 -0.5522
              Bcc     0.1525    81.343    29.025    27.133  0.4441 -0.4244  0.7891
 
              Baa    -0.2886  -154.008   -54.954   -51.371  0.0499  0.5649  0.8236
    25 H(1)   Bbb     0.1336    71.278    25.434    23.776  0.8728 -0.4256  0.2390
              Bcc     0.1551    82.729    29.520    27.596  0.4856  0.7069 -0.5143
 
              Baa    -0.2801  -149.448   -53.327   -49.851  0.0353  0.9644 -0.2620
    26 H(1)   Bbb     0.1371    73.169    26.109    24.407  0.4859  0.2125  0.8478
              Bcc     0.1430    76.279    27.218    25.444  0.8733 -0.1572 -0.4611
 
              Baa    -0.2806  -149.712   -53.421   -49.938  0.5854  0.2849  0.7591
    27 H(1)   Bbb     0.1322    70.558    25.177    23.536  0.2232  0.8434 -0.4887
              Bcc     0.1484    79.154    28.244    26.403  0.7794 -0.4555 -0.4302
 
              Baa    -0.2769  -147.735   -52.715   -49.279  0.8890 -0.4514 -0.0768
    28 H(1)   Bbb     0.1269    67.690    24.154    22.579  0.4452  0.8913 -0.0856
              Bcc     0.1500    80.045    28.562    26.700  0.1071  0.0419  0.9934
 
              Baa    -0.3012  -160.706   -57.344   -53.606  0.2146  0.5288  0.8212
    29 H(1)   Bbb     0.1386    73.930    26.380    24.661  0.6194  0.5764 -0.5331
              Bcc     0.1626    86.775    30.964    28.945  0.7552 -0.6230  0.2039
 
              Baa    -0.3072  -163.900   -58.484   -54.671  0.2370  0.5509  0.8002
    30 H(1)   Bbb     0.1423    75.933    27.095    25.329  0.5670  0.5904 -0.5744
              Bcc     0.1649    87.966    31.389    29.342  0.7889 -0.5898  0.1724
 
              Baa    -0.3066  -163.605   -58.378   -54.573 -0.4065 -0.2322  0.8836
    31 H(1)   Bbb     0.1430    76.275    27.217    25.443  0.4833  0.7661  0.4237
              Bcc     0.1637    87.330    31.162    29.130  0.7753 -0.5993  0.1992
 
              Baa    -0.3041  -162.240   -57.891   -54.118 -0.3257  0.9423  0.0777
    32 H(1)   Bbb     0.1348    71.940    25.670    23.996  0.9100  0.2900  0.2964
              Bcc     0.1692    90.301    32.222    30.121 -0.2567 -0.1672  0.9519
 
              Baa    -0.3131  -167.035   -59.602   -55.717  0.6314  0.7498  0.1978
    33 H(1)   Bbb     0.1407    75.079    26.790    25.044  0.7498 -0.6554  0.0913
              Bcc     0.1723    91.956    32.812    30.673 -0.1981 -0.0907  0.9760
 
[...]
 9737 Fit      -0.087694
 9738 Fit      -0.090399
 9739 Fit      -0.095130
 9740 Fit      -0.102116
 9741 Fit      -0.088380
 9742 Fit      -0.085860
 9743 Fit      -0.084620
 9744 Fit      -0.084728
 9745 Fit      -0.086305
 9746 Fit      -0.089548
 9747 Fit      -0.094769
 9748 Fit      -0.102424
 9749 Fit      -0.087236
 9750 Fit      -0.084687
 9751 Fit      -0.083163
 9752 Fit      -0.082726
 9753 Fit      -0.083457
 9754 Fit      -0.085491
 9755 Fit      -0.089050
 9756 Fit      -0.094488
 9757 Fit      -0.102368
 9758 Fit      -0.086427
 9759 Fit      -0.083822
 9760 Fit      -0.082155
 9761 Fit      -0.081485
 9762 Fit      -0.081881
 9763 Fit      -0.083457
 9764 Fit      -0.086403
 9765 Fit      -0.091027
 9766 Fit      -0.097840
 9767 Fit      -0.086058
 9768 Fit      -0.083443
 9769 Fit      -0.081687
 9770 Fit      -0.080834
 9771 Fit      -0.080934
 9772 Fit      -0.082076
 9773 Fit      -0.084407
 9774 Fit      -0.088162
 9775 Fit      -0.093731
 9776 Fit      -0.101771
 9777 Fit      -0.087658
 9778 Fit      -0.084633
 9779 Fit      -0.082423
 9780 Fit      -0.081052
 9781 Fit      -0.080551
 9782 Fit      -0.080975
 9783 Fit      -0.082418
 9784 Fit      -0.085036
 9785 Fit      -0.089077
 9786 Fit      -0.094949
 9787 Fit      -0.103340
 9788 Fit      -0.086290
 9789 Fit      -0.083639
 9790 Fit      -0.081854
 9791 Fit      -0.080950
 9792 Fit      -0.080968
 9793 Fit      -0.081986
 9794 Fit      -0.084130
 9795 Fit      -0.087605
 9796 Fit      -0.092742
 9797 Fit      -0.100086
 9798 Fit      -0.084142
 9799 Fit      -0.082424
 9800 Fit      -0.081646
 9801 Fit      -0.081857
 9802 Fit      -0.083144
 9803 Fit      -0.085649
 9804 Fit      -0.089598
 9805 Fit      -0.095344
 9806 Fit      -0.085002
 9807 Fit      -0.083420
 9808 Fit      -0.082811
 9809 Fit      -0.083230
 9810 Fit      -0.084769
 9811 Fit      -0.087563
 9812 Fit      -0.091813
 9813 Fit      -0.097801
 9814 Fit      -0.084665
 9815 Fit      -0.084467
 9816 Fit      -0.085472
 9817 Fit      -0.087782
 9818 Fit      -0.091519
 9819 Fit      -0.040165
 9820 Fit      -0.040002
 9821 Fit      -0.038213
 9822 Fit      -0.036533
 9823 Fit      -0.038615
 9824 Fit      -0.036986
 9825 Fit      -0.035576
 9826 Fit      -0.034270
 9827 Fit      -0.039809
 9828 Fit      -0.037908
 9829 Fit      -0.036398
 9830 Fit      -0.035201
 9831 Fit      -0.034563
 9832 Fit      -0.034245
 9833 Fit      -0.034431
 9834 Fit      -0.039907
 9835 Fit      -0.037904
 9836 Fit      -0.036389
 9837 Fit      -0.035285
 9838 Fit      -0.035115
 9839 Fit      -0.034996
 9840 Fit      -0.035447
 9841 Fit      -0.036589
 9842 Fit      -0.038542
 9843 Fit      -0.041320
 9844 Fit      -0.040613
 9845 Fit      -0.038420
 9846 Fit      -0.036821
 9847 Fit      -0.035730
 9848 Fit      -0.035927
 9849 Fit      -0.035910
 9850 Fit      -0.036474
 9851 Fit      -0.037666
 9852 Fit      -0.039497
 9853 Fit      -0.041877
 9854 Fit      -0.041605
 9855 Fit      -0.039262
 9856 Fit      -0.037586
 9857 Fit      -0.036487
 9858 Fit      -0.037004
 9859 Fit      -0.037047
 9860 Fit      -0.037738
 9861 Fit      -0.039061
 9862 Fit      -0.040933
 9863 Fit      -0.043619
 9864 Fit      -0.040835
 9865 Fit      -0.038865
 9866 Fit      -0.037605
 9867 Fit      -0.038349
 9868 Fit      -0.038415
 9869 Fit      -0.039187
 9870 Fit      -0.040575
 9871 Fit      -0.042394
 9872 Fit      -0.045914
 9873 Fit      -0.042760
 9874 Fit      -0.040482
 9875 Fit      -0.039027
 9876 Fit      -0.039951
 9877 Fit      -0.040041
 9878 Fit      -0.040955
 9879 Fit      -0.042470
 9880 Fit      -0.045342
 9881 Fit      -0.042601
 9882 Fit      -0.040792
 9883 Fit      -0.041782
 9884 Fit      -0.041962
 9885 Fit      -0.043210
 9886 Fit      -0.045438
 9887 Fit      -0.042972
 9888 Fit      -0.043789
 9889 Fit      -0.045620
 9890 Fit      -0.061439
 9891 Fit      -0.064706
 9892 Fit      -0.069315
 9893 Fit      -0.054137
 9894 Fit      -0.055982
 9895 Fit      -0.058239
 9896 Fit      -0.061204
 9897 Fit      -0.065129
 9898 Fit      -0.070244
 9899 Fit      -0.051340
 9900 Fit      -0.053238
 9901 Fit      -0.055420
 9902 Fit      -0.058101
 9903 Fit      -0.061469
 9904 Fit      -0.065667
 9905 Fit      -0.048193
 9906 Fit      -0.049972
 9907 Fit      -0.051955
 9908 Fit      -0.054284
 9909 Fit      -0.057119
 9910 Fit      -0.060584
 9911 Fit      -0.064712
 9912 Fit      -0.069353
 9913 Fit      -0.046329
 9914 Fit      -0.047605
 9915 Fit      -0.049219
 9916 Fit      -0.051169
 9917 Fit      -0.053533
 9918 Fit      -0.056398
 9919 Fit      -0.059786
 9920 Fit      -0.063552
 9921 Fit      -0.067274
 9922 Fit      -0.047100
 9923 Fit      -0.047080
 9924 Fit      -0.047885
 9925 Fit      -0.049324
 9926 Fit      -0.051311
 9927 Fit      -0.053839
 9928 Fit      -0.056864
 9929 Fit      -0.060149
 9930 Fit      -0.063145
 9931 Fit      -0.065069
 9932 Fit      -0.065361
 9933 Fit      -0.064176
 9934 Fit      -0.062153
 9935 Fit      -0.053433
 9936 Fit      -0.048911
 9937 Fit      -0.048937
 9938 Fit      -0.050213
 9939 Fit      -0.052470
 9940 Fit      -0.055403
 9941 Fit      -0.058373
 9942 Fit      -0.060303
 9943 Fit      -0.060358
 9944 Fit      -0.058726
 9945 Fit      -0.056079
 9946 Fit      -0.053002
 9947 Fit      -0.050341
 9948 Fit      -0.050974
 9949 Fit      -0.051587
 9950 Fit      -0.054256
 9951 Fit      -0.056505
 9952 Fit      -0.055828
 9953 Fit      -0.053024
 9954 Fit      -0.053453
 9955 Fit      -0.058789
 9956 Fit      -0.061589
 9957 Fit      -0.057556
 9958 Fit      -0.060352
 9959 Fit      -0.063049
 9960 Fit      -0.065121
 9961 Fit      -0.066460
 9962 Fit      -0.054466
 9963 Fit      -0.057032
 9964 Fit      -0.059805
 9965 Fit      -0.062618
 9966 Fit      -0.065160
 9967 Fit      -0.067132
 9968 Fit      -0.068479
 9969 Fit      -0.069449
 9970 Fit      -0.055341
 9971 Fit      -0.058032
 9972 Fit      -0.060905
 9973 Fit      -0.063871
 9974 Fit      -0.066682
 9975 Fit      -0.069017
 9976 Fit      -0.070648
 9977 Fit      -0.071627
 9978 Fit      -0.072322
 9979 Fit      -0.055077
 9980 Fit      -0.057686
 9981 Fit      -0.060541
 9982 Fit      -0.063662
 9983 Fit      -0.066913
 9984 Fit      -0.070006
 9985 Fit      -0.072560
 9986 Fit      -0.074249
 9987 Fit      -0.075026
 9988 Fit      -0.055435
 9989 Fit      -0.057780
 9990 Fit      -0.060444
 9991 Fit      -0.063495
 9992 Fit      -0.066897
 9993 Fit      -0.070493
 9994 Fit      -0.073968
 9995 Fit      -0.055591
 9996 Fit      -0.057507
 9997 Fit      -0.059830
 9998 Fit      -0.062653
 9999 Fit      -0.066017
 **** Fit      -0.069898
 **** Fit      -0.074148
 **** Fit      -0.057963
 **** Fit      -0.059712
 **** Fit      -0.062055
 **** Fit      -0.065033
 **** Fit      -0.068691
 **** Fit      -0.073056
 **** Fit      -0.060711
 **** Fit      -0.062690
 **** Fit      -0.065401
 **** Fit      -0.068895
 **** Fit      -0.073276
 **** Fit      -0.062881
 **** Fit      -0.065081
 **** Fit      -0.068184
 **** Fit      -0.072300
 **** Fit      -0.065877
 **** Fit      -0.068906
 **** Fit      -0.069698
 **** Fit      -0.038786
 **** Fit      -0.038290
 **** Fit      -0.043624
 **** Fit      -0.041373
 **** Fit      -0.039788
 **** Fit      -0.037283
 **** Fit      -0.036976
 **** Fit      -0.037044
 **** Fit      -0.046202
 **** Fit      -0.043237
 **** Fit      -0.040936
 **** Fit      -0.039215
 **** Fit      -0.038014
 **** Fit      -0.036060
 **** Fit      -0.035907
 **** Fit      -0.036120
 **** Fit      -0.036662
 **** Fit      -0.046489
 **** Fit      -0.043401
 **** Fit      -0.040934
 **** Fit      -0.039011
 **** Fit      -0.037582
 **** Fit      -0.036609
 **** Fit      -0.035124
 **** Fit      -0.035108
 **** Fit      -0.035434
 **** Fit      -0.036087
 **** Fit      -0.037048
 **** Fit      -0.046071
 **** Fit      -0.043233
 **** Fit      -0.040854
 **** Fit      -0.038909
 **** Fit      -0.037378
 **** Fit      -0.036246
 **** Fit      -0.035499
 **** Fit      -0.034480
 **** Fit      -0.034590
 **** Fit      -0.035029
 **** Fit      -0.035792
 **** Fit      -0.036876
 **** Fit      -0.038282
 **** Fit      -0.042635
 **** Fit      -0.040650
 **** Fit      -0.038868
 **** Fit      -0.037356
 **** Fit      -0.036147
 **** Fit      -0.035259
 **** Fit      -0.034703
 **** Fit      -0.034127
 **** Fit      -0.034375
 **** Fit      -0.034963
 **** Fit      -0.035898
 **** Fit      -0.037188
 **** Fit      -0.038847
 **** Fit      -0.038638
 **** Fit      -0.037423
 **** Fit      -0.036278
 **** Fit      -0.035320
 **** Fit      -0.034618
 **** Fit      -0.034213
 **** Fit      -0.034062
 **** Fit      -0.034466
 **** Fit      -0.035232
 **** Fit      -0.036379
 **** Fit      -0.037929
 **** Fit      -0.039910
 **** Fit      -0.035992
 **** Fit      -0.035367
 **** Fit      -0.034726
 **** Fit      -0.034238
 **** Fit      -0.033998
 **** Fit      -0.034274
 **** Fit      -0.034845
 **** Fit      -0.035788
 **** Fit      -0.037137
 **** Fit      -0.038925
 **** Fit      -0.041195
 **** Fit      -0.034395
 **** Fit      -0.034242
 **** Fit      -0.034059
 **** Fit      -0.034034
 **** Fit      -0.034750
 **** Fit      -0.035562
 **** Fit      -0.036801
 **** Fit      -0.038524
 **** Fit      -0.040783
 **** Fit      -0.033764
 **** Fit      -0.034034
 **** Fit      -0.034284
 **** Fit      -0.035469
 **** Fit      -0.036569
 **** Fit      -0.038147
 **** Fit      -0.040288
 **** Fit      -0.043052
 **** Fit      -0.034052
 **** Fit      -0.034712
 **** Fit      -0.036415
 **** Fit      -0.037924
 **** Fit      -0.040012
 **** Fit      -0.042776
 **** Fit      -0.035251
 **** Fit      -0.037580
 **** Fit      -0.039759
 **** Fit      -0.042701
 **** Fit      -0.045798
 **** Fit      -0.044497
 **** Fit      -0.043592
 **** Fit      -0.044910
 **** Fit      -0.047262
 **** Fit      -0.048470
 **** Fit      -0.047002
 **** Fit      -0.043371
 **** Fit      -0.042038
 **** Fit      -0.041829
 **** Fit      -0.042667
 **** Fit      -0.044344
 **** Fit      -0.046538
 **** Fit      -0.048852
 **** Fit      -0.050785
 **** Fit      -0.051640
 **** Fit      -0.050815
 **** Fit      -0.048507
 **** Fit      -0.045700
 **** Fit      -0.042417
 **** Fit      -0.041060
 **** Fit      -0.040433
 **** Fit      -0.040492
 **** Fit      -0.041179
 **** Fit      -0.042417
 **** Fit      -0.044103
 **** Fit      -0.046102
 **** Fit      -0.048275
 **** Fit      -0.050500
 **** Fit      -0.052645
 **** Fit      -0.054430
 **** Fit      -0.044510
 **** Fit      -0.041614
 **** Fit      -0.040300
 **** Fit      -0.039569
 **** Fit      -0.039365
 **** Fit      -0.039648
 **** Fit      -0.040381
 **** Fit      -0.041524
 **** Fit      -0.043022
 **** Fit      -0.044802
 **** Fit      -0.046773
 **** Fit      -0.048853
 **** Fit      -0.051000
 **** Fit      -0.053227
 **** Fit      -0.055537
 **** Fit      -0.043567
 **** Fit      -0.040929
 **** Fit      -0.039705
 **** Fit      -0.038990
 **** Fit      -0.038716
 **** Fit      -0.038842
 **** Fit      -0.039343
 **** Fit      -0.040199
 **** Fit      -0.041385
 **** Fit      -0.042863
 **** Fit      -0.044580
 **** Fit      -0.046463
 **** Fit      -0.048431
 **** Fit      -0.050421
 **** Fit      -0.052439
 **** Fit      -0.054601
 **** Fit      -0.039266
 **** Fit      -0.038654
 **** Fit      -0.038401
 **** Fit      -0.038466
 **** Fit      -0.038831
 **** Fit      -0.039486
 **** Fit      -0.040421
 **** Fit      -0.041623
 **** Fit      -0.043067
 **** Fit      -0.044710
 **** Fit      -0.046493
 **** Fit      -0.048337
 **** Fit      -0.050156
 **** Fit      -0.051889
 **** Fit      -0.053560
 **** Fit      -0.038465
 **** Fit      -0.038345
 **** Fit      -0.038490
 **** Fit      -0.038888
 **** Fit      -0.039538
 **** Fit      -0.040442
 **** Fit      -0.041594
 **** Fit      -0.042980
 **** Fit      -0.044572
 **** Fit      -0.046320
 **** Fit      -0.048148
 **** Fit      -0.049954
 **** Fit      -0.051610
 **** Fit      -0.052994
 **** Fit      -0.038542
 **** Fit      -0.038817
 **** Fit      -0.039285
 **** Fit      -0.039956
 **** Fit      -0.040841
 **** Fit      -0.041947
 **** Fit      -0.043270
 **** Fit      -0.044794
 **** Fit      -0.046482
 **** Fit      -0.048275
 **** Fit      -0.050078
 **** Fit      -0.051754
 **** Fit      -0.053107
 **** Fit      -0.040101
 **** Fit      -0.040867
 **** Fit      -0.041815
 **** Fit      -0.042960
 **** Fit      -0.044308
 **** Fit      -0.045847
 **** Fit      -0.047550
 **** Fit      -0.049363
 **** Fit      -0.051196
 **** Fit      -0.052906
 **** Fit      -0.042481
 **** Fit      -0.043622
 **** Fit      -0.044959
 **** Fit      -0.046500
 **** Fit      -0.048233
 **** Fit      -0.050123
 **** Fit      -0.052095
 **** Fit      -0.101567
 **** Fit      -0.096888
 **** Fit      -0.092125
 **** Fit      -0.099345
 **** Fit      -0.092595
 **** Fit      -0.096416
 **** Fit      -0.089877
 **** Fit      -0.095536
 **** Fit      -0.088630
 **** Fit      -0.094689
 **** Fit      -0.087750
 **** Fit      -0.090192
 **** Fit      -0.084238
 **** Fit      -0.093412
 **** Fit      -0.086575
 **** Fit      -0.091130
 **** Fit      -0.085151
 **** Fit      -0.092746
 **** Fit      -0.086550
 **** Fit      -0.096505
 **** Fit      -0.089599
 **** Fit      -0.084795
 **** Fit      -0.092984
 **** Fit      -0.087842
 **** Fit      -0.100213
 **** Fit      -0.093601
 **** Fit      -0.089003
 **** Fit      -0.100239
 **** Fit      -0.110751
 **** Fit      -0.119605
 **** Fit      -0.101524
 **** Fit      -0.109183
 **** Fit      -0.119259
 **** Fit      -0.093596
 **** Fit      -0.099308
 **** Fit      -0.107150
 **** Fit      -0.117557
 **** Fit      -0.130942
 **** Fit      -0.088762
 **** Fit      -0.094012
 **** Fit      -0.101093
 **** Fit      -0.110577
 **** Fit      -0.123207
 **** Fit      -0.084416
 **** Fit      -0.089251
 **** Fit      -0.095446
 **** Fit      -0.103574
 **** Fit      -0.114350
 **** Fit      -0.128778
 **** Fit      -0.081634
 **** Fit      -0.086400
 **** Fit      -0.092215
 **** Fit      -0.099661
 **** Fit      -0.109406
 **** Fit      -0.122354
 **** Fit      -0.081542
 **** Fit      -0.086577
 **** Fit      -0.092766
 **** Fit      -0.100716
 **** Fit      -0.111142
 **** Fit      -0.125032
 **** Fit      -0.083367
 **** Fit      -0.088808
 **** Fit      -0.095726
 **** Fit      -0.104723
 **** Fit      -0.116551
 **** Fit      -0.081456
 **** Fit      -0.085961
 **** Fit      -0.091723
 **** Fit      -0.099183
 **** Fit      -0.108834
 **** Fit      -0.121223
 **** Fit      -0.082382
 **** Fit      -0.086400
 **** Fit      -0.091918
 **** Fit      -0.099229
 **** Fit      -0.108625
 **** Fit      -0.120220
 **** Fit      -0.087493
 **** Fit      -0.092524
 **** Fit      -0.099373
 **** Fit      -0.107955
 **** Fit      -0.117692
 **** Fit      -0.090014
 **** Fit      -0.095030
 **** Fit      -0.101829
 **** Fit      -0.109471
 **** Fit      -0.116044
 **** Fit      -0.119078
 **** Fit      -0.093864
 **** Fit      -0.099570
 **** Fit      -0.105701
 **** Fit      -0.109145
 **** Fit      -0.074369
 **** Fit      -0.075426
 **** Fit      -0.072854
 **** Fit      -0.071512
 **** Fit      -0.071489
 **** Fit      -0.072666
 **** Fit      -0.074971
 **** Fit      -0.078331
 **** Fit      -0.072194
 **** Fit      -0.069928
 **** Fit      -0.068996
 **** Fit      -0.069188
 **** Fit      -0.070401
 **** Fit      -0.072569
 **** Fit      -0.075629
 **** Fit      -0.079488
 **** Fit      -0.071759
 **** Fit      -0.068817
 **** Fit      -0.067354
 **** Fit      -0.067063
 **** Fit      -0.067795
 **** Fit      -0.069463
 **** Fit      -0.072005
 **** Fit      -0.075348
 **** Fit      -0.079360
 **** Fit      -0.071572
 **** Fit      -0.068172
 **** Fit      -0.066301
 **** Fit      -0.065601
 **** Fit      -0.065894
 **** Fit      -0.067080
 **** Fit      -0.069094
 **** Fit      -0.071877
 **** Fit      -0.075339
 **** Fit      -0.079306
 **** Fit      -0.070887
 **** Fit      -0.067468
 **** Fit      -0.065495
 **** Fit      -0.064641
 **** Fit      -0.064739
 **** Fit      -0.065690
 **** Fit      -0.067430
 **** Fit      -0.069905
 **** Fit      -0.073040
 **** Fit      -0.076695
 **** Fit      -0.080579
 **** Fit      -0.069421
 **** Fit      -0.066399
 **** Fit      -0.064681
 **** Fit      -0.064023
 **** Fit      -0.064293
 **** Fit      -0.065408
 **** Fit      -0.067310
 **** Fit      -0.069938
 **** Fit      -0.073197
 **** Fit      -0.076910
 **** Fit      -0.071883
 **** Fit      -0.067952
 **** Fit      -0.065494
 **** Fit      -0.064203
 **** Fit      -0.063920
 **** Fit      -0.064552
 **** Fit      -0.066032
 **** Fit      -0.068300
 **** Fit      -0.071274
 **** Fit      -0.074811
 **** Fit      -0.078641
 **** Fit      -0.070192
 **** Fit      -0.067096
 **** Fit      -0.065201
 **** Fit      -0.064351
 **** Fit      -0.064453
 **** Fit      -0.065443
 **** Fit      -0.067262
 **** Fit      -0.069839
 **** Fit      -0.073061
 **** Fit      -0.076738
 **** Fit      -0.072505
 **** Fit      -0.068932
 **** Fit      -0.066585
 **** Fit      -0.065379
 **** Fit      -0.065243
 **** Fit      -0.066116
 **** Fit      -0.067935
 **** Fit      -0.070606
 **** Fit      -0.073988
 **** Fit      -0.077864
 **** Fit      -0.075276
 **** Fit      -0.071468
 **** Fit      -0.068681
 **** Fit      -0.067056
 **** Fit      -0.066607
 **** Fit      -0.067302
 **** Fit      -0.069072
 **** Fit      -0.071800
 **** Fit      -0.075306
 **** Fit      -0.071373
 **** Fit      -0.069294
 **** Fit      -0.068591
 **** Fit      -0.069303
 **** Fit      -0.071344
 **** Fit      -0.074510
 **** Fit      -0.072156
 **** Fit      -0.071176
 **** Fit      -0.072321
 **** Fit      -0.075350
 **** Fit      -0.074394
 -----------------------------------------------------------------
 Leave Link  602 at Wed Jun 22 18:17:38 2016, MaxMem=    6291456 cpu:       7.0

 Test job not archived.
 1\1\GINC-COMPUTE-2-8\FOpt\RHF\6-31G(d)\C14H13N2O3S2(1-)\DAVE\22-Jun-20
 16\0\\#HF/6-31G* SCF=tight Test Pop=MK iop(6/33=2) iop(6/42=6) opt\\re
 mark line goes here\\-1,1\C,-3.6338447605,8.8019807473,15.7360437219\C
 ,-2.41382175,8.4387012763,15.2252487162\C,-3.0421603737,6.1015226306,1
 5.1943979533\C,-4.586396472,7.8171070005,15.9874711806\C,-2.0988695712
 ,7.091101564,14.949502423\C,-4.2692149115,6.4956688712,15.7101331303\C
 ,-6.4972901714,6.9465826509,16.618812739\C,-10.0942094681,9.9177972767
 ,16.2427657128\C,-8.9165249597,9.346878466,16.4021847328\C,-0.28751707
 25,5.6903978343,14.0107638142\C,1.4843200731,8.3349063839,12.705147254
 1\C,-8.5306472477,8.54304583,17.6088907037\C,1.1335661631,5.8363465656
 ,13.490058761\C,1.3278866543,6.8345702932,12.3321120204\N,-5.862833033
 5,8.0339381357,16.502094965\N,-0.8272940186,6.8556439361,14.4453800617
 \O,-0.8512964828,4.6223209428,14.0359866527\O,1.0722347907,8.678096063
 8,13.835068931\O,1.986658673,9.032600931,11.8385780922\S,-5.6470152496
 ,5.4885088946,16.1187117021\S,-8.1414342994,6.7974166943,17.2427874411
 \H,-0.2105378898,7.6612280006,14.3307024912\H,2.2175185064,6.555423976
 5,11.7783654275\H,0.5040662226,6.7533495733,11.6249174421\H,1.76595425
 28,6.1326008387,14.321710007\H,1.429453958,4.8407595336,13.1823007593\
 H,-9.3443072667,8.5015318921,18.3225136358\H,-7.6636583606,8.966360737
 3,18.0956340259\H,-8.154997534,9.4512086037,15.6500663343\H,-10.876593
 3727,9.8313237702,16.978358641\H,-10.322450561,10.4968451987,15.365730
 9019\H,-2.8166141604,5.0782222226,14.9846810902\H,-1.6681298754,9.1849
 625245,15.0179763935\H,-3.8620004311,9.8320501396,15.9409021413\\Versi
 on=AM64L-G03RevD.02\State=1-A\HF=-1666.3010938\RMSD=7.184e-09\RMSF=5.2
 40e-06\Thermal=0.\Dipole=-6.6026342,-0.7670855,3.2501979\PG=C01 [X(C14
 H13N2O3S2)]\\@


 ERROR IS A HARDY PLANT... IT FLOURISHETH IN EVERY SOIL.
            MARTIN FARQUHAR TUPPER
 Job cpu time:  0 days  6 hours 21 minutes 47.0 seconds.
 File lengths (MBytes):  RWF=     88 Int=      0 D2E=      0 Chk=     14 Scr=      1
 Normal termination of Gaussian 03 at Wed Jun 22 18:17:39 2016.
