 Entering Gaussian System, Link 0=/usr/local/g09_c01/g09
 Initial command:
 /usr/local/g09_c01/l1.exe /scr/gf/dave/81306/Gau-27184.inp -scrdir=/scr/gf/dave/81306/
 Entering Link 1 = /usr/local/g09_c01/l1.exe PID=     27186.
  
 Copyright (c) 1988,1990,1992,1993,1995,1998,2003,2009,2011,
            Gaussian, Inc.  All Rights Reserved.
  
 This is part of the Gaussian(R) 09 program.  It is based on
 the Gaussian(R) 03 system (copyright 2003, Gaussian, Inc.),
 the Gaussian(R) 98 system (copyright 1998, Gaussian, Inc.),
 the Gaussian(R) 94 system (copyright 1995, Gaussian, Inc.),
 the Gaussian 92(TM) system (copyright 1992, Gaussian, Inc.),
 the Gaussian 90(TM) system (copyright 1990, Gaussian, Inc.),
 the Gaussian 88(TM) system (copyright 1988, Gaussian, Inc.),
 the Gaussian 86(TM) system (copyright 1986, Carnegie Mellon
 University), and the Gaussian 82(TM) system (copyright 1983,
 Carnegie Mellon University). Gaussian is a federally registered
 trademark of Gaussian, Inc.
  
 This software contains proprietary and confidential information,
 including trade secrets, belonging to Gaussian, Inc.
  
 This software is provided under written license and may be
 used, copied, transmitted, or stored only in accord with that
 written license.
  
 The following legend is applicable only to US Government
 contracts under FAR:
  
                    RESTRICTED RIGHTS LEGEND
  
 Use, reproduction and disclosure by the US Government is
 subject to restrictions as set forth in subparagraphs (a)
 and (c) of the Commercial Computer Software - Restricted
 Rights clause in FAR 52.227-19.
  
 Gaussian, Inc.
 340 Quinnipiac St., Bldg. 40, Wallingford CT 06492
  
  
 ---------------------------------------------------------------
 Warning -- This program may not be used in any manner that
 competes with the business of Gaussian, Inc. or will provide
 assistance to any competitor of Gaussian, Inc.  The licensee
 of this program is prohibited from giving any competitor of
 Gaussian, Inc. access to this program.  By using this program,
 the user acknowledges that Gaussian, Inc. is engaged in the
 business of creating and licensing software in the field of
 computational chemistry and represents and warrants to the
 licensee that it is not a competitor of Gaussian, Inc. and that
 it will not use this program in any manner prohibited above.
 ---------------------------------------------------------------
  

 Cite this work as:
 Gaussian 09, Revision C.01,
 M. J. Frisch, G. W. Trucks, H. B. Schlegel, G. E. Scuseria, 
 M. A. Robb, J. R. Cheeseman, G. Scalmani, V. Barone, B. Mennucci, 
 G. A. Petersson, H. Nakatsuji, M. Caricato, X. Li, H. P. Hratchian, 
 A. F. Izmaylov, J. Bloino, G. Zheng, J. L. Sonnenberg, M. Hada, 
 M. Ehara, K. Toyota, R. Fukuda, J. Hasegawa, M. Ishida, T. Nakajima, 
 Y. Honda, O. Kitao, H. Nakai, T. Vreven, J. A. Montgomery, Jr., 
 J. E. Peralta, F. Ogliaro, M. Bearpark, J. J. Heyd, E. Brothers, 
 K. N. Kudin, V. N. Staroverov, T. Keith, R. Kobayashi, J. Normand, 
 K. Raghavachari, A. Rendell, J. C. Burant, S. S. Iyengar, J. Tomasi, 
 M. Cossi, N. Rega, J. M. Millam, M. Klene, J. E. Knox, J. B. Cross, 
 V. Bakken, C. Adamo, J. Jaramillo, R. Gomperts, R. E. Stratmann, 
 O. Yazyev, A. J. Austin, R. Cammi, C. Pomelli, J. W. Ochterski, 
 R. L. Martin, K. Morokuma, V. G. Zakrzewski, G. A. Voth, 
 P. Salvador, J. J. Dannenberg, S. Dapprich, A. D. Daniels, 
 O. Farkas, J. B. Foresman, J. V. Ortiz, J. Cioslowski, 
 and D. J. Fox, Gaussian, Inc., Wallingford CT, 2010.
 
 ******************************************
 Gaussian 09:  EM64L-G09RevC.01 23-Sep-2011
                22-Jun-2016 
 ******************************************
 %chk=molecule
 ------------------------------------------------------------
 #HF/6-31G* SCF=tight Test Pop=MK iop(6/33=2) iop(6/42=6) opt
 ------------------------------------------------------------
 1/18=20,19=15,38=1/1,3;
 2/9=110,12=2,17=6,18=5,40=1/2;
 3/5=1,6=6,7=1,11=9,16=1,25=1,30=1,71=1/1,2,3;
 4//1;
 5/5=2,32=2,38=5/2;
 6/7=2,8=2,9=2,10=2,15=8,20=1,28=1,33=2,42=6/1,2;
 7//1,2,3,16;
 1/18=20,19=15/3(2);
 2/9=110/2;
 99//99;
 2/9=110/2;
 3/5=1,6=6,7=1,11=9,16=1,25=1,30=1,71=1/1,2,3;
 4/5=5,16=3/1;
 5/5=2,32=2,38=5/2;
 7//1,2,3,16;
 1/18=20,19=15/3(-5);
 2/9=110/2;
 6/7=2,8=2,9=2,10=2,15=8,19=2,20=1,28=1,33=2,42=6/1,2;
 99/9=1/99;
 ---------------------
 remark line goes here
 ---------------------
 Charge = -2 Multiplicity = 1
 Symbolic Z-Matrix:
 C                     3.207    -1.669     6.401 
 C                     4.932    -1.013     7.944 
 C                     2.327    -0.785     7.005 
 C                     4.055    -0.135     8.551 
 C                     4.502    -1.781     6.871 
 C                     2.759    -0.035     8.062 
 C                     4.546    -4.655     7.19 
 C                     6.284    -4.674     5.37 
 C                     5.048    -3.977     5.925 
 O                     5.093    -4.496     8.299 
 O                     6.238    -5.745     4.78 
 O                     3.488    -5.364     6.971 
 O                     7.376    -4.016     5.594 
 O                     5.423    -2.623     6.294 
 Br                    1.555     1.177     8.881 
 H                     4.254    -3.966     5.164 
 H                     4.374     0.468     9.394 
 H                     1.31     -0.689     6.643 
 H                     5.95     -1.103     8.305 
 H                     2.88     -2.271     5.561 
 

 GradGradGradGradGradGradGradGradGradGradGradGradGradGradGradGradGradGrad
 Berny optimization.
 Initialization pass.
                           ----------------------------
                           !    Initial Parameters    !
                           ! (Angstroms and Degrees)  !
 --------------------------                            --------------------------
 ! Name  Definition              Value          Derivative Info.                !
 --------------------------------------------------------------------------------
 ! R1    R(1,3)                  1.3859         estimate D2E/DX2                !
 ! R2    R(1,5)                  1.3822         estimate D2E/DX2                !
 ! R3    R(1,20)                 1.0839         estimate D2E/DX2                !
 ! R4    R(2,4)                  1.3815         estimate D2E/DX2                !
 ! R5    R(2,5)                  1.3878         estimate D2E/DX2                !
 ! R6    R(2,19)                 1.0839         estimate D2E/DX2                !
 ! R7    R(3,6)                  1.3662         estimate D2E/DX2                !
 ! R8    R(3,18)                 1.0838         estimate D2E/DX2                !
 ! R9    R(4,6)                  1.3888         estimate D2E/DX2                !
 ! R10   R(4,17)                 1.0844         estimate D2E/DX2                !
 ! R11   R(5,14)                 1.3748         estimate D2E/DX2                !
 ! R12   R(6,15)                 1.8946         estimate D2E/DX2                !
 ! R13   R(7,9)                  1.5205         estimate D2E/DX2                !
 ! R14   R(7,10)                 1.2467         estimate D2E/DX2                !
 ! R15   R(7,12)                 1.2923         estimate D2E/DX2                !
 ! R16   R(8,9)                  1.5237         estimate D2E/DX2                !
 ! R17   R(8,11)                 1.2236         estimate D2E/DX2                !
 ! R18   R(8,13)                 1.2945         estimate D2E/DX2                !
 ! R19   R(9,14)                 1.4526         estimate D2E/DX2                !
 ! R20   R(9,16)                 1.0999         estimate D2E/DX2                !
 ! A1    A(3,1,5)              119.8946         estimate D2E/DX2                !
 ! A2    A(3,1,20)             120.029          estimate D2E/DX2                !
 ! A3    A(5,1,20)             120.0764         estimate D2E/DX2                !
 ! A4    A(4,2,5)              119.6516         estimate D2E/DX2                !
 ! A5    A(4,2,19)             120.1778         estimate D2E/DX2                !
 ! A6    A(5,2,19)             120.1705         estimate D2E/DX2                !
 ! A7    A(1,3,6)              119.1165         estimate D2E/DX2                !
 ! A8    A(1,3,18)             120.4499         estimate D2E/DX2                !
 ! A9    A(6,3,18)             120.4336         estimate D2E/DX2                !
 ! A10   A(2,4,6)              118.9122         estimate D2E/DX2                !
 ! A11   A(2,4,17)             120.545          estimate D2E/DX2                !
 ! A12   A(6,4,17)             120.5426         estimate D2E/DX2                !
 ! A13   A(1,5,2)              120.5541         estimate D2E/DX2                !
 ! A14   A(1,5,14)             122.314          estimate D2E/DX2                !
 ! A15   A(2,5,14)             117.119          estimate D2E/DX2                !
 ! A16   A(3,6,4)              121.8694         estimate D2E/DX2                !
 ! A17   A(3,6,15)             118.9936         estimate D2E/DX2                !
 ! A18   A(4,6,15)             119.1369         estimate D2E/DX2                !
 ! A19   A(9,7,10)             122.5697         estimate D2E/DX2                !
 ! A20   A(9,7,12)             111.9595         estimate D2E/DX2                !
 ! A21   A(10,7,12)            125.4444         estimate D2E/DX2                !
 ! A22   A(9,8,11)             123.061          estimate D2E/DX2                !
 ! A23   A(9,8,13)             112.8778         estimate D2E/DX2                !
 ! A24   A(11,8,13)            124.0608         estimate D2E/DX2                !
 ! A25   A(7,9,8)              111.524          estimate D2E/DX2                !
 ! A26   A(7,9,14)             106.8296         estimate D2E/DX2                !
 ! A27   A(7,9,16)             109.9842         estimate D2E/DX2                !
 ! A28   A(8,9,14)             108.0296         estimate D2E/DX2                !
 ! A29   A(8,9,16)             109.7651         estimate D2E/DX2                !
 ! A30   A(14,9,16)            110.659          estimate D2E/DX2                !
 ! A31   A(5,14,9)             120.3006         estimate D2E/DX2                !
 ! D1    D(5,1,3,6)             -0.0089         estimate D2E/DX2                !
 ! D2    D(5,1,3,18)           179.9193         estimate D2E/DX2                !
 ! D3    D(20,1,3,6)          -179.9728         estimate D2E/DX2                !
 ! D4    D(20,1,3,18)           -0.0446         estimate D2E/DX2                !
 ! D5    D(3,1,5,2)             -0.1013         estimate D2E/DX2                !
 ! D6    D(3,1,5,14)          -178.7592         estimate D2E/DX2                !
 ! D7    D(20,1,5,2)           179.8625         estimate D2E/DX2                !
 ! D8    D(20,1,5,14)            1.2047         estimate D2E/DX2                !
 ! D9    D(5,2,4,6)             -0.4919         estimate D2E/DX2                !
 ! D10   D(5,2,4,17)           179.6534         estimate D2E/DX2                !
 ! D11   D(19,2,4,6)           179.6232         estimate D2E/DX2                !
 ! D12   D(19,2,4,17)           -0.2315         estimate D2E/DX2                !
 ! D13   D(4,2,5,1)              0.3559         estimate D2E/DX2                !
 ! D14   D(4,2,5,14)           179.0816         estimate D2E/DX2                !
 ! D15   D(19,2,5,1)          -179.7592         estimate D2E/DX2                !
 ! D16   D(19,2,5,14)           -1.0336         estimate D2E/DX2                !
 ! D17   D(1,3,6,4)             -0.1384         estimate D2E/DX2                !
 ! D18   D(1,3,6,15)           179.7763         estimate D2E/DX2                !
 ! D19   D(18,3,6,4)           179.9334         estimate D2E/DX2                !
 ! D20   D(18,3,6,15)           -0.1519         estimate D2E/DX2                !
 ! D21   D(2,4,6,3)              0.3909         estimate D2E/DX2                !
 ! D22   D(2,4,6,15)          -179.5237         estimate D2E/DX2                !
 ! D23   D(17,4,6,3)          -179.7544         estimate D2E/DX2                !
 ! D24   D(17,4,6,15)            0.331          estimate D2E/DX2                !
 ! D25   D(1,5,14,9)           -44.2779         estimate D2E/DX2                !
 ! D26   D(2,5,14,9)           137.0206         estimate D2E/DX2                !
 ! D27   D(10,7,9,8)            77.3963         estimate D2E/DX2                !
 ! D28   D(10,7,9,14)          -40.4366         estimate D2E/DX2                !
 ! D29   D(10,7,9,16)         -160.5827         estimate D2E/DX2                !
 ! D30   D(12,7,9,8)          -104.3774         estimate D2E/DX2                !
 ! D31   D(12,7,9,14)          137.7897         estimate D2E/DX2                !
 ! D32   D(12,7,9,16)           17.6436         estimate D2E/DX2                !
 ! D33   D(11,8,9,7)            75.0067         estimate D2E/DX2                !
 ! D34   D(11,8,9,14)         -167.885          estimate D2E/DX2                !
 ! D35   D(11,8,9,16)          -47.1406         estimate D2E/DX2                !
 ! D36   D(13,8,9,7)          -104.7752         estimate D2E/DX2                !
 ! D37   D(13,8,9,14)           12.333          estimate D2E/DX2                !
 ! D38   D(13,8,9,16)          133.0775         estimate D2E/DX2                !
 ! D39   D(7,9,14,5)           -57.558          estimate D2E/DX2                !
 ! D40   D(8,9,14,5)          -177.661          estimate D2E/DX2                !
 ! D41   D(16,9,14,5)           62.154          estimate D2E/DX2                !
 --------------------------------------------------------------------------------
 Trust Radius=3.00D-01 FncErr=1.00D-07 GrdErr=1.00D-07
 Number of steps in this run=    102 maximum allowed number of steps=    120.
 GradGradGradGradGradGradGradGradGradGradGradGradGradGradGradGradGradGrad

                          Input orientation:                          
 ---------------------------------------------------------------------
 Center     Atomic      Atomic             Coordinates (Angstroms)
 Number     Number       Type             X           Y           Z
 ---------------------------------------------------------------------
      1          6           0        3.207000   -1.669000    6.401000
      2          6           0        4.932000   -1.013000    7.944000
      3          6           0        2.327000   -0.785000    7.005000
      4          6           0        4.055000   -0.135000    8.551000
      5          6           0        4.502000   -1.781000    6.871000
      6          6           0        2.759000   -0.035000    8.062000
      7          6           0        4.546000   -4.655000    7.190000
      8          6           0        6.284000   -4.674000    5.370000
      9          6           0        5.048000   -3.977000    5.925000
     10          8           0        5.093000   -4.496000    8.299000
     11          8           0        6.238000   -5.745000    4.780000
     12          8           0        3.488000   -5.364000    6.971000
     13          8           0        7.376000   -4.016000    5.594000
     14          8           0        5.423000   -2.623000    6.294000
     15         35           0        1.555000    1.177000    8.881000
     16          1           0        4.254000   -3.966000    5.164000
     17          1           0        4.374000    0.468000    9.394000
     18          1           0        1.310000   -0.689000    6.643000
     19          1           0        5.950000   -1.103000    8.305000
     20          1           0        2.880000   -2.271000    5.561000
 ---------------------------------------------------------------------
                    Distance matrix (angstroms):
                    1          2          3          4          5
     1  C    0.000000
     2  C    2.405579   0.000000
     3  C    1.385883   2.778440   0.000000
     4  C    2.773943   1.381471   2.408028   0.000000
     5  C    1.382197   1.387823   2.395954   2.394060   0.000000
     6  C    2.372674   2.385862   1.366153   1.388790   2.739534
     7  C    3.366250   3.739208   4.464872   4.745925   2.891984
     8  C    4.422772   4.675072   5.784064   5.974088   3.714562
     9  C    2.990438   3.588191   4.331178   4.758454   2.452641
    10  O    3.892471   3.504745   4.805904   4.489907   3.124050
    11  O    5.331827   5.840236   6.696876   7.103382   4.806170
    12  O    3.749251   4.686477   4.724015   5.491842   3.725062
    13  O    4.851826   4.529199   6.158140   5.902123   3.858216
    14  O    2.414999   2.357049   3.670011   3.627067   1.374821
    15  Br   4.120585   4.132578   2.822198   2.842577   4.634077
    16  H    2.811154   4.111969   4.149864   5.117414   2.783806
    17  H    3.858330   2.146445   3.386375   1.084444   3.382294
    18  H    2.148854   3.862183   1.083766   3.388570   3.381318
    19  H    3.386683   1.083857   3.862286   2.142094   2.147730
    20  H    1.083943   3.387028   2.144561   3.857878   2.141748
                    6          7          8          9         10
     6  C    0.000000
     7  C    5.029727   0.000000
     8  C    6.418163   2.516626   0.000000
     9  C    5.034447   1.520498   1.523657   0.000000
    10  O    5.040262   1.246744   3.166892   2.430486   0.000000
    11  O    7.448427   3.139915   1.223625   2.419287   3.905686
    12  O    5.488166   1.292287   3.294984   2.334842   2.256775
    13  O    6.576935   3.311259   1.294451   2.351737   3.572046
    14  O    4.113449   2.387670   2.408671   1.452619   2.763522
    15  Br   1.894550   6.768884   8.302094   6.892220   6.711117
    16  H    5.107464   2.159783   2.159769   1.099854   3.288320
    17  H    2.153011   5.579635   6.803002   5.678579   5.133934
    18  H    2.130934   5.147821   6.499341   5.029822   5.616643
    19  H    3.373745   3.978837   4.634417   3.838995   3.499562
    20  H    3.356983   3.333565   4.171104   2.782653   4.164689
                   11         12         13         14         15
    11  O    0.000000
    12  O    3.536685   0.000000
    13  O    2.224203   4.339329   0.000000
    14  O    3.564170   3.422811   2.498931   0.000000
    15  Br   9.309284   7.083027   8.464967   6.007828   0.000000
    16  H    2.692314   2.409649   3.151870   2.108817   6.895733
    17  H    7.960205   6.377158   6.599868   4.501631   2.951713
    18  H    7.301992   5.167871   6.997549   4.558391   2.924145
    19  H    5.835815   5.098737   4.227123   2.575316   4.984596
    20  H    4.894364   3.453174   4.822876   2.669839   4.966561
                   16         17         18         19         20
    16  H    0.000000
    17  H    6.129246   0.000000
    18  H    4.646860   4.277236   0.000000
    19  H    4.575922   2.477446   4.946033   0.000000
    20  H    2.217771   4.942271   2.477569   4.280030   0.000000
 Stoichiometry    C9H5BrO5(2-)
 Framework group  C1[X(C9H5BrO5)]
 Deg. of freedom    54
 Full point group                 C1      NOp   1
 Largest Abelian subgroup         C1      NOp   1
 Largest concise Abelian subgroup C1      NOp   1
                         Standard orientation:                         
 ---------------------------------------------------------------------
 Center     Atomic      Atomic             Coordinates (Angstroms)
 Number     Number       Type             X           Y           Z
 ---------------------------------------------------------------------
      1          6           0        0.202502    0.269062   -1.119206
      2          6           0        0.361288   -1.297690    0.699279
      3          6           0        1.567242    0.498277   -1.044254
      4          6           0        1.720980   -1.066834    0.779312
      5          6           0       -0.394788   -0.624177   -0.249817
      6          6           0        2.302594   -0.167837   -0.105147
      7          6           0       -2.489692    1.121690    0.712939
      8          6           0       -4.102144   -0.453580   -0.405958
      9          6           0       -2.709364    0.162899   -0.446534
     10          8           0       -2.246361    0.729649    1.871155
     11          8           0       -5.113204    0.160201   -0.719467
     12          8           0       -2.550417    2.356594    0.336999
     13          8           0       -4.096453   -1.683698   -0.002992
     14          8           0       -1.739225   -0.907808   -0.296470
     15         35           0        4.168989    0.143345   -0.009971
     16          1           0       -2.562838    0.688242   -1.401638
     17          1           0        2.324686   -1.580947    1.519073
     18          1           0        2.045081    1.195749   -1.722305
     19          1           0       -0.112880   -1.999706    1.375358
     20          1           0       -0.395084    0.789222   -1.858974
 ---------------------------------------------------------------------
 Rotational constants (GHZ):      1.4024181      0.1723719      0.1668699
 Standard basis: 6-31G(d) (6D, 7F)
 There are   250 symmetry adapted basis functions of A   symmetry.
 Integral buffers will be    131072 words long.
 Raffenetti 1 integral format.
 Two-electron integral symmetry is turned on.
   250 basis functions,   495 primitive gaussians,   250 cartesian basis functions
    68 alpha electrons       68 beta electrons
       nuclear repulsion energy      1224.3373738637 Hartrees.
 NAtoms=   20 NActive=   20 NUniq=   20 SFac= 1.00D+00 NAtFMM=   60 NAOKFM=F Big=F
 One-electron integrals computed using PRISM.
 NBasis=   250 RedAO= T  NBF=   250
 NBsUse=   250 1.00D-06 NBFU=   250
 Harris functional with IExCor=  205 diagonalized for initial guess.
 ExpMin= 1.43D-01 ExpMax= 5.74D+05 ExpMxC= 5.74D+03 IAcc=2 IRadAn=         4 AccDes= 0.00D+00
 HarFok:  IExCor=  205 AccDes= 0.00D+00 IRadAn=         4 IDoV= 1
 ScaDFX=  1.000000  1.000000  1.000000  1.000000
 FoFCou: FMM=F IPFlag=           0 FMFlag=      100000 FMFlg1=           0
         NFxFlg=           0 DoJE=T BraDBF=F KetDBF=T FulRan=T
         Omega=  0.000000  0.000000  1.000000  0.000000  0.000000 ICntrl=     500 IOpCl=  0
         NMat0=    1 NMatS0=    1 NMatT0=    0 NMatD0=    1 NMtDS0=    0 NMtDT0=    0
         I1Cent=           4 NGrid=           0.
 Petite list used in FoFCou.
 Initial guess orbital symmetries:
       Occupied  (A) (A) (A) (A) (A) (A) (A) (A) (A) (A) (A) (A)
                 (A) (A) (A) (A) (A) (A) (A) (A) (A) (A) (A) (A)
                 (A) (A) (A) (A) (A) (A) (A) (A) (A) (A) (A) (A)
                 (A) (A) (A) (A) (A) (A) (A) (A) (A) (A) (A) (A)
                 (A) (A) (A) (A) (A) (A) (A) (A) (A) (A) (A) (A)
                 (A) (A) (A) (A) (A) (A) (A) (A)
       Virtual   (A) (A) (A) (A) (A) (A) (A) (A) (A) (A) (A) (A)
                 (A) (A) (A) (A) (A) (A) (A) (A) (A) (A) (A) (A)
                 (A) (A) (A) (A) (A) (A) (A) (A) (A) (A) (A) (A)
                 (A) (A) (A) (A) (A) (A) (A) (A) (A) (A) (A) (A)
                 (A) (A) (A) (A) (A) (A) (A) (A) (A) (A) (A) (A)
                 (A) (A) (A) (A) (A) (A) (A) (A) (A) (A) (A) (A)
                 (A) (A) (A) (A) (A) (A) (A) (A) (A) (A) (A) (A)
                 (A) (A) (A) (A) (A) (A) (A) (A) (A) (A) (A) (A)
                 (A) (A) (A) (A) (A) (A) (A) (A) (A) (A) (A) (A)
                 (A) (A) (A) (A) (A) (A) (A) (A) (A) (A) (A) (A)
                 (A) (A) (A) (A) (A) (A) (A) (A) (A) (A) (A) (A)
                 (A) (A) (A) (A) (A) (A) (A) (A) (A) (A) (A) (A)
                 (A) (A) (A) (A) (A) (A) (A) (A) (A) (A) (A) (A)
                 (A) (A) (A) (A) (A) (A) (A) (A) (A) (A) (A) (A)
                 (A) (A) (A) (A) (A) (A) (A) (A) (A) (A) (A) (A)
                 (A) (A)
 The electronic state of the initial guess is 1-A.
 Requested convergence on RMS density matrix=1.00D-08 within 128 cycles.
 Requested convergence on MAX density matrix=1.00D-06.
 Requested convergence on             energy=1.00D-06.
 No special actions if energy rises.
 Integral accuracy reduced to 1.0D-05 until final iterations.
 Initial convergence to 1.0D-05 achieved.  Increase integral accuracy.
 SCF Done:  E(RHF) =  -3287.84125130     A.U. after   16 cycles
             Convg  =    0.3358D-08             -V/T =  2.0039

 **********************************************************************

            Population analysis using the SCF density.

 **********************************************************************

 Orbital symmetries:
 BldTbl:  Degeneracy threshold= 1.00D-02
       Occupied  (A) (A) (A) (A) (A) (A) (A) (A) (A) (A) (A) (A)
                 (A) (A) (A) (A) (A) (A) (A) (A) (A) (A) (A) (A)
                 (A) (A) (A) (A) (A) (A) (A) (A) (A) (A) (A) (A)
                 (A) (A) (A) (A) (A) (A) (A) (A) (A) (A) (A) (A)
                 (A) (A) (A) (A) (A) (A) (A) (A) (A) (A) (A) (A)
                 (A) (A) (A) (A) (A) (A) (A) (A)
       Virtual   (A) (A) (A) (A) (A) (A) (A) (A) (A) (A) (A) (A)
                 (A) (A) (A) (A) (A) (A) (A) (A) (A) (A) (A) (A)
                 (A) (A) (A) (A) (A) (A) (A) (A) (A) (A) (A) (A)
                 (A) (A) (A) (A) (A) (A) (A) (A) (A) (A) (A) (A)
                 (A) (A) (A) (A) (A) (A) (A) (A) (A) (A) (A) (A)
                 (A) (A) (A) (A) (A) (A) (A) (A) (A) (A) (A) (A)
                 (A) (A) (A) (A) (A) (A) (A) (A) (A) (A) (A) (A)
                 (A) (A) (A) (A) (A) (A) (A) (A) (A) (A) (A) (A)
                 (A) (A) (A) (A) (A) (A) (A) (A) (A) (A) (A) (A)
                 (A) (A) (A) (A) (A) (A) (A) (A) (A) (A) (A) (A)
                 (A) (A) (A) (A) (A) (A) (A) (A) (A) (A) (A) (A)
                 (A) (A) (A) (A) (A) (A) (A) (A) (A) (A) (A) (A)
                 (A) (A) (A) (A) (A) (A) (A) (A) (A) (A) (A) (A)
                 (A) (A) (A) (A) (A) (A) (A) (A) (A) (A) (A) (A)
                 (A) (A) (A) (A) (A) (A) (A) (A) (A) (A) (A) (A)
                 (A) (A)
 The electronic state is 1-A.
 Alpha  occ. eigenvalues -- -489.89073 -64.30235 -58.44173 -58.44015 -58.43998
 Alpha  occ. eigenvalues --  -20.31210 -20.17327 -20.17109 -20.15680 -20.14264
 Alpha  occ. eigenvalues --  -11.09369 -11.08098 -11.05407 -11.05327 -11.02683
 Alpha  occ. eigenvalues --  -11.02550 -11.01197 -11.00832 -10.98638  -9.55069
 Alpha  occ. eigenvalues --   -7.29947  -7.29172  -7.29151  -3.03814  -3.03441
 Alpha  occ. eigenvalues --   -3.03422  -3.02532  -3.02531  -1.13021  -1.04098
 Alpha  occ. eigenvalues --   -1.03011  -0.97193  -0.92306  -0.91467  -0.86567
 Alpha  occ. eigenvalues --   -0.82996  -0.76785  -0.68523  -0.64294  -0.59427
 Alpha  occ. eigenvalues --   -0.48909  -0.46050  -0.44471  -0.43382  -0.40457
 Alpha  occ. eigenvalues --   -0.39317  -0.37630  -0.35108  -0.32439  -0.32125
 Alpha  occ. eigenvalues --   -0.30828  -0.30465  -0.27451  -0.25657  -0.25317
 Alpha  occ. eigenvalues --   -0.24124  -0.23103  -0.22620  -0.20136  -0.18820
 Alpha  occ. eigenvalues --   -0.14851  -0.11032  -0.08505  -0.07441  -0.06282
 Alpha  occ. eigenvalues --   -0.05617  -0.05061  -0.04708
 Alpha virt. eigenvalues --    0.33713   0.35075   0.35124   0.45450   0.47179
 Alpha virt. eigenvalues --    0.49157   0.51972   0.53395   0.56151   0.56499
 Alpha virt. eigenvalues --    0.59061   0.60731   0.63945   0.64415   0.66451
 Alpha virt. eigenvalues --    0.69592   0.71700   0.73592   0.75645   0.79824
 Alpha virt. eigenvalues --    0.81517   0.82253   0.82319   0.83637   0.84725
 Alpha virt. eigenvalues --    0.86739   0.87257   0.87545   0.89204   0.92163
 Alpha virt. eigenvalues --    0.93441   0.94420   0.97032   0.98956   1.00702
 Alpha virt. eigenvalues --    1.01821   1.02194   1.04118   1.07325   1.08223
 Alpha virt. eigenvalues --    1.10230   1.10539   1.13251   1.15291   1.16747
 Alpha virt. eigenvalues --    1.17087   1.19563   1.19826   1.21147   1.23163
 Alpha virt. eigenvalues --    1.24035   1.25065   1.27063   1.27871   1.29648
 Alpha virt. eigenvalues --    1.30739   1.32147   1.33044   1.34668   1.35868
 Alpha virt. eigenvalues --    1.39588   1.41149   1.43273   1.44492   1.46174
 Alpha virt. eigenvalues --    1.47317   1.47916   1.49627   1.50233   1.52619
 Alpha virt. eigenvalues --    1.56755   1.58829   1.60245   1.62145   1.63545
 Alpha virt. eigenvalues --    1.65018   1.66317   1.68309   1.69128   1.69221
 Alpha virt. eigenvalues --    1.71993   1.73429   1.75019   1.76484   1.79839
 Alpha virt. eigenvalues --    1.82880   1.85080   1.88199   1.90060   1.90810
 Alpha virt. eigenvalues --    1.93103   1.94842   1.96519   1.98317   2.01666
 Alpha virt. eigenvalues --    2.03835   2.05930   2.07688   2.09783   2.14790
 Alpha virt. eigenvalues --    2.20518   2.25431   2.27570   2.29896   2.33177
 Alpha virt. eigenvalues --    2.35167   2.36801   2.37266   2.40054   2.42201
 Alpha virt. eigenvalues --    2.43487   2.46298   2.47627   2.48417   2.50378
 Alpha virt. eigenvalues --    2.50808   2.50883   2.51946   2.53724   2.55310
 Alpha virt. eigenvalues --    2.57724   2.58778   2.60095   2.62909   2.64655
 Alpha virt. eigenvalues --    2.65357   2.66770   2.68067   2.69670   2.70044
 Alpha virt. eigenvalues --    2.72843   2.76377   2.78287   2.80641   2.81405
 Alpha virt. eigenvalues --    2.84368   2.86772   2.88029   2.92230   3.00684
 Alpha virt. eigenvalues --    3.04394   3.07229   3.11175   3.16328   3.21260
 Alpha virt. eigenvalues --    3.23010   3.24785   3.27827   3.28537   3.33615
 Alpha virt. eigenvalues --    3.34187   3.36154   3.37948   3.39588   3.44814
 Alpha virt. eigenvalues --    3.53747   3.55301   3.61636   3.63367   3.64430
 Alpha virt. eigenvalues --    3.68436   3.75581   3.81602   3.84311   3.90861
 Alpha virt. eigenvalues --    4.01739   4.61142   4.66817   4.70309   4.73982
 Alpha virt. eigenvalues --    4.79392   4.88418   4.96558   4.97085   5.01704
 Alpha virt. eigenvalues --    5.14741   5.20096   5.23462   5.43528   5.47747
 Alpha virt. eigenvalues --    9.45190  74.66289
          Condensed to atoms (all electrons):
              1          2          3          4          5          6
     1  C    5.077472  -0.071256   0.484872  -0.029433   0.529307  -0.054436
     2  C   -0.071256   4.993798  -0.031847   0.500457   0.566660  -0.051141
     3  C    0.484872  -0.031847   4.942070  -0.043737  -0.024838   0.568411
     4  C   -0.029433   0.500457  -0.043737   4.972443  -0.037621   0.544591
     5  C    0.529307   0.566660  -0.024838  -0.037621   4.313256  -0.026229
     6  C   -0.054436  -0.051141   0.568411   0.544591  -0.026229   4.863921
     7  C   -0.000509   0.000323  -0.000108  -0.000032  -0.004386   0.000026
     8  C   -0.000002  -0.000061   0.000003   0.000001   0.000482   0.000000
     9  C   -0.004355   0.001664  -0.000015  -0.000119  -0.031755   0.000012
    10  O   -0.000712   0.001502  -0.000028  -0.000193   0.009531   0.000020
    11  O   -0.000002   0.000000   0.000000   0.000000   0.000001   0.000000
    12  O    0.001235  -0.000005  -0.000006   0.000004  -0.001542   0.000000
    13  O   -0.000023  -0.000013   0.000000  -0.000001   0.001242   0.000000
    14  O   -0.053471  -0.048594   0.003660   0.003782   0.265446   0.000048
    15  Br   0.003820   0.003354  -0.065511  -0.062946   0.000124   0.243507
    16  H   -0.001703  -0.000074  -0.000144   0.000015  -0.003824  -0.000003
    17  H    0.000036  -0.025545   0.002744   0.381487   0.001510  -0.037733
    18  H   -0.024361   0.000091   0.381510   0.002743   0.000902  -0.037680
    19  H    0.004238   0.372102   0.000000  -0.040180  -0.010394   0.002256
    20  H    0.376108   0.003487  -0.036007   0.000218  -0.016883   0.002109
              7          8          9         10         11         12
     1  C   -0.000509  -0.000002  -0.004355  -0.000712  -0.000002   0.001235
     2  C    0.000323  -0.000061   0.001664   0.001502   0.000000  -0.000005
     3  C   -0.000108   0.000003  -0.000015  -0.000028   0.000000  -0.000006
     4  C   -0.000032   0.000001  -0.000119  -0.000193   0.000000   0.000004
     5  C   -0.004386   0.000482  -0.031755   0.009531   0.000001  -0.001542
     6  C    0.000026   0.000000   0.000012   0.000020   0.000000   0.000000
     7  C    4.067211  -0.017773   0.300993   0.527242   0.005846   0.472065
     8  C   -0.017773   4.009585   0.285603   0.004654   0.544197   0.000151
     9  C    0.300993   0.285603   5.439004  -0.114438  -0.112096  -0.115984
    10  O    0.527242   0.004654  -0.114438   8.416993   0.000052  -0.093554
    11  O    0.005846   0.544197  -0.112096   0.000052   8.401978  -0.000496
    12  O    0.472065   0.000151  -0.115984  -0.093554  -0.000496   8.544735
    13  O   -0.000393   0.507980  -0.124106  -0.000411  -0.101318   0.000035
    14  O   -0.030609  -0.015473   0.074836   0.000259   0.000945   0.002416
    15  Br   0.000000   0.000000   0.000000   0.000000   0.000000   0.000000
    16  H   -0.046265  -0.027563   0.368278   0.002771   0.005148   0.008920
    17  H   -0.000001   0.000000   0.000001  -0.000002   0.000000   0.000000
    18  H   -0.000003   0.000000  -0.000004   0.000000   0.000000   0.000000
    19  H    0.000072  -0.000022  -0.000078   0.000688   0.000000   0.000000
    20  H    0.000009  -0.000097   0.001987   0.000027   0.000000   0.000113
             13         14         15         16         17         18
     1  C   -0.000023  -0.053471   0.003820  -0.001703   0.000036  -0.024361
     2  C   -0.000013  -0.048594   0.003354  -0.000074  -0.025545   0.000091
     3  C    0.000000   0.003660  -0.065511  -0.000144   0.002744   0.381510
     4  C   -0.000001   0.003782  -0.062946   0.000015   0.381487   0.002743
     5  C    0.001242   0.265446   0.000124  -0.003824   0.001510   0.000902
     6  C    0.000000   0.000048   0.243507  -0.000003  -0.037733  -0.037680
     7  C   -0.000393  -0.030609   0.000000  -0.046265  -0.000001  -0.000003
     8  C    0.507980  -0.015473   0.000000  -0.027563   0.000000   0.000000
     9  C   -0.124106   0.074836   0.000000   0.368278   0.000001  -0.000004
    10  O   -0.000411   0.000259   0.000000   0.002771  -0.000002   0.000000
    11  O   -0.101318   0.000945   0.000000   0.005148   0.000000   0.000000
    12  O    0.000035   0.002416   0.000000   0.008920   0.000000   0.000000
    13  O    8.526150  -0.007221   0.000000   0.002962   0.000000   0.000000
    14  O   -0.007221   8.535304   0.000001  -0.039766  -0.000046  -0.000038
    15  Br   0.000000   0.000001  35.119603   0.000000  -0.001716  -0.002183
    16  H    0.002962  -0.039766   0.000000   0.594745   0.000000   0.000005
    17  H    0.000000  -0.000046  -0.001716   0.000000   0.498551  -0.000122
    18  H    0.000000  -0.000038  -0.002183   0.000005  -0.000122   0.494020
    19  H    0.000062  -0.000721  -0.000102   0.000019  -0.002071   0.000011
    20  H    0.000004  -0.004239  -0.000111   0.001602   0.000010  -0.001733
             19         20
     1  C    0.004238   0.376108
     2  C    0.372102   0.003487
     3  C    0.000000  -0.036007
     4  C   -0.040180   0.000218
     5  C   -0.010394  -0.016883
     6  C    0.002256   0.002109
     7  C    0.000072   0.000009
     8  C   -0.000022  -0.000097
     9  C   -0.000078   0.001987
    10  O    0.000688   0.000027
    11  O    0.000000   0.000000
    12  O    0.000000   0.000113
    13  O    0.000062   0.000004
    14  O   -0.000721  -0.004239
    15  Br  -0.000102  -0.000111
    16  H    0.000019   0.001602
    17  H   -0.002071   0.000010
    18  H    0.000011  -0.001733
    19  H    0.445829  -0.000095
    20  H   -0.000095   0.452732
 Mulliken atomic charges:
              1
     1  C   -0.236825
     2  C   -0.214902
     3  C   -0.181031
     4  C   -0.191480
     5  C    0.469011
     6  C   -0.017681
     7  C    0.726293
     8  C    0.708335
     9  C    0.030572
    10  O   -0.754400
    11  O   -0.744256
    12  O   -0.818086
    13  O   -0.804950
    14  O   -0.686519
    15  Br  -0.237841
    16  H    0.134877
    17  H    0.182895
    18  H    0.186843
    19  H    0.228387
    20  H    0.220758
 Sum of Mulliken atomic charges =  -2.00000
 Mulliken charges with hydrogens summed into heavy atoms:
              1
     1  C   -0.016067
     2  C    0.013485
     3  C    0.005812
     4  C   -0.008584
     5  C    0.469011
     6  C   -0.017681
     7  C    0.726293
     8  C    0.708335
     9  C    0.165449
    10  O   -0.754400
    11  O   -0.744256
    12  O   -0.818086
    13  O   -0.804950
    14  O   -0.686519
    15  Br  -0.237841
 Sum of Mulliken charges with hydrogens summed into heavy atoms =  -2.00000
 DipInt: DoE/N= T F RetVal/Mat= T F Init=T NMatP=  1 IDeriv=0 Min/MaxMlt=  0  4
 Entering OneElI...
 OneElI was handed    33391919 working-precision words.
 Multipole integrals L=0 to 4 MinM= 0 MaxM= 0.
 Requested accuracy = 0.1000D-12
 PrsmSu:  NPrtUS=   1 ThrOK=F IAlg=1 NPAlg=1 LenDen=           0.
 Prism:   IPart=     0 DynPar=F LinDyn=F Incr=          25.
 PRISM was handed    33141251 working-precision words and  2520 shell-pairs
 IPart=  0 NShTot=        2520 NBatch=          93 AvBLen=        27.1
 PrSmSu:  NxtVal=             26.
 Electronic moments (au):
       -136.00000000         10.50477041         -1.04846844         -1.55004060
      -4943.38032917       -518.50761383       -340.75988412          0.02743723
          3.52354775         -6.62363982       -226.23894475       -311.96521385
       -244.98276680       1693.79920188        -31.65139012        835.35915264
        612.72181516       -166.50470897       -277.21182529        530.98175596
    -296732.35433098      -6957.42378716      -3258.74520496     -10387.89077742
      -9718.35495920       2059.13010687       -224.79002960       1465.70665412
       -143.95802993     -14330.28252908      -7544.46495980      -1200.94025243
       -973.14014900        664.37022044        951.52842872
 Electronic spatial extent (au):  <R**2>=           5802.6478
 DipInt: DoE/N= F T RetVal/Mat= T F Init=T NMatP=  1 IDeriv=0 Min/MaxMlt=  0  4
 Nuclear    moments (au):
        134.00000000          0.00000000          0.00000000          0.00000000
       4760.71651589        422.15083437        259.48810209          0.00000000
          0.00000000          0.00000000       1053.94006856        278.44773720
        216.85578725      -1521.57394250         70.68999890       -799.75021717
       -530.29252917        157.29893957        272.16157327       -525.06713643
     274305.10586623       4839.57430557       1990.07664532      10038.43898916
       9176.60475712      -1876.74488578        159.59227579      -1338.96736997
         77.66312187      10799.12848314       4697.26678414        724.04320283
        931.83863132       -613.95067072       -875.81075910
 Total      moments (au):
         -2.00000000         10.50477041         -1.04846844         -1.55004060
       -182.66381328        -96.35677946        -81.27178203          0.02743723
          3.52354775         -6.62363982        827.70112381        -33.51747665
        -28.12697955        172.22525938         39.03860878         35.60893548
         82.42928599         -9.20576940         -5.05025202          5.91461953
     -22427.24846475      -2117.84948159      -1268.66855964       -349.45178826
       -541.75020208        182.38522108        -65.19775381        126.73928414
        -66.29490806      -3531.15404594      -2847.19817566       -476.89704960
        -41.30151768         50.41954972         75.71766962
 Traceless Quadrup. (au):
        -62.56635502         23.74067879         38.82567623          0.02743723
          3.52354775         -6.62363982
 Charge=             -2.0000 electrons
 Dipole moment (field-independent basis, Debye):
    X=             26.7005    Y=             -2.6649    Z=             -3.9398  Tot=             27.1208
 Quadrupole moment (field-independent basis, Debye-Ang):
   XX=           -245.6891   YY=           -129.6032   ZZ=           -109.3133
   XY=              0.0369   XZ=              4.7393   YZ=             -8.9090
 Traceless Quadrupole moment (field-independent basis, Debye-Ang):
   XX=            -84.1539   YY=             31.9320   ZZ=             52.2219
   XY=              0.0369   XZ=              4.7393   YZ=             -8.9090
 Octapole moment (field-independent basis, Debye-Ang**2):
  XXX=            589.1257  YYY=            -23.8564  ZZZ=            -20.0197  XYY=            122.5833
  XXY=             27.7862  XXZ=             25.3451  XZZ=             58.6700  YZZ=             -6.5523
  YYZ=             -3.5946  XYZ=              4.2098
 Hexadecapole moment (field-independent basis, Debye-Ang**3):
 XXXX=          -8447.1766 YYYY=           -797.6836 ZZZZ=           -477.8414 XXXY=           -131.6203
 XXXZ=           -204.0491 YYYX=             68.6950 YYYZ=            -24.5566 ZZZX=             47.7361
 ZZZY=            -24.9698 XXYY=          -1330.0018 XXZZ=          -1072.3913 YYZZ=           -179.6223
 XXYZ=            -15.5561 YYXZ=             18.9904 ZZXY=             28.5189
 N-N= 1.224337373864D+03 E-N=-1.031147557967D+04  KE= 3.274955528356D+03
 Entering OneElI...
 OneElI was handed    33266169 working-precision words.
 Calculate electrostatic properties
    NBasis =   250  MinDer = 0  MaxDer = 0
    NGrid  =    20  NMatD  =   1
 Requested accuracy = 0.1000D-12
 PrsmSu:  NPrtUS=   1 ThrOK=F IAlg=1 NPAlg=1 LenDen=           0.
 Prism:   IPart=     0 DynPar=F LinDyn=F Incr=         449.
 PRISM was handed    33039609 working-precision words and  2245 shell-pairs
 IPart=  0 NShTot=       44900 NBatch=        2245 AvBLen=        20.0
 PrSmSu:  NxtVal=            450.
 --------------------------------------------------------
       Center         ----      EFG at Nuclei      ----
                      3XX-RR        3YY-RR        3ZZ-RR
 --------------------------------------------------------
     1   Atom        0.105450     -0.063140     -0.042310
     2   Atom        0.143531     -0.083663     -0.059868
     3   Atom        0.197647     -0.127887     -0.069761
     4   Atom        0.197575     -0.118700     -0.078875
     5   Atom       -0.005587     -0.039957      0.045544
     6   Atom       -0.415912      0.177037      0.238875
     7   Atom       -0.535765      0.274677      0.261088
     8   Atom        0.248224      0.209908     -0.458132
     9   Atom       -0.047984     -0.145048      0.193032
    10   Atom       -0.401343      1.298079     -0.896736
    11   Atom       -0.418943      0.748912     -0.329969
    12   Atom       -0.297994     -0.960599      1.258593
    13   Atom        1.543528     -1.166029     -0.377499
    14   Atom       -1.907448      0.153561      1.753887
    15   Atom       -5.703379      2.758209      2.945170
    16   Atom        0.125335      0.056246     -0.181580
    17   Atom        0.004180      0.054158     -0.058337
    18   Atom        0.057897     -0.031299     -0.026598
    19   Atom        0.066535     -0.038882     -0.027653
    20   Atom        0.009559      0.053696     -0.063255
 --------------------------------------------------------
                        XY            XZ            YZ
 --------------------------------------------------------
     1   Atom        0.058838      0.028132     -0.190374
     2   Atom        0.031907      0.049573     -0.212209
     3   Atom        0.053298      0.059245     -0.192274
     4   Atom        0.072869      0.041851     -0.180329
     5   Atom        0.009012      0.047406     -0.365684
     6   Atom       -0.102165     -0.007919     -0.144665
     7   Atom       -0.014861      0.162730     -0.037130
     8   Atom       -0.036867      0.094014     -0.255208
     9   Atom        0.456873     -0.003540      0.103109
    10   Atom        0.164030     -0.107844      0.644814
    11   Atom        0.999921     -0.368103     -0.283620
    12   Atom        0.072917      0.263624      0.801873
    13   Atom       -0.027714      0.208198      0.278573
    14   Atom        0.398175     -0.237760      0.026373
    15   Atom       -1.452041     -0.428591      0.010205
    16   Atom       -0.021179      0.061345      0.178518
    17   Atom        0.119118     -0.177647      0.161209
    18   Atom       -0.133635      0.124913      0.197734
    19   Atom       -0.131004      0.118494      0.198199
    20   Atom        0.113792     -0.172417      0.164570
 --------------------------------------------------------


 ---------------------------------------------------------------------------------
              Nuclear Quadrupole in Principal Axis System
 ---------------------------------------------------------------------------------

       Atom             a.u.   MegaHertz   Gauss  10(-4) cm-1        Axes

              Baa    -0.2541   -34.102   -12.168   -11.375 -0.1706  0.7215  0.6711
     1 C(13)  Bbb     0.1045    14.026     5.005     4.679  0.8479 -0.2395  0.4730
              Bcc     0.1496    20.076     7.163     6.697  0.5020  0.6497 -0.5709
 
              Baa    -0.2918   -39.162   -13.974   -13.063 -0.1305  0.7175  0.6842
     2 C(13)  Bbb     0.1310    17.583     6.274     5.865  0.5670  0.6202 -0.5422
              Bcc     0.1608    21.580     7.700     7.198  0.8133 -0.3172  0.4877
 
              Baa    -0.3057   -41.022   -14.638   -13.683 -0.1552  0.7464  0.6472
     3 C(13)  Bbb     0.0948    12.717     4.538     4.242 -0.0850 -0.6628  0.7440
              Bcc     0.2109    28.305    10.100     9.442  0.9842  0.0604  0.1663
 
              Baa    -0.2940   -39.450   -14.077   -13.159 -0.1652  0.7397  0.6523
     4 C(13)  Bbb     0.0804    10.789     3.850     3.599  0.1272 -0.6399  0.7579
              Bcc     0.2136    28.661    10.227     9.560  0.9780  0.2082  0.0116
 
              Baa    -0.3694   -49.572   -17.688   -16.535 -0.1049  0.7401  0.6642
     5 C(13)  Bbb    -0.0039    -0.517    -0.184    -0.172  0.9914  0.1301  0.0116
              Bcc     0.3733    50.089    17.873    16.708  0.0778 -0.6598  0.7474
 
              Baa    -0.4346   -58.318   -20.809   -19.453  0.9832  0.1759  0.0493
     6 C(13)  Bbb     0.0742     9.959     3.554     3.322 -0.1657  0.7448  0.6464
              Bcc     0.3604    48.359    17.256    16.131  0.0769 -0.6437  0.7614
 
              Baa    -0.5678   -76.191   -27.187   -25.415  0.9813  0.0088 -0.1923
     7 C(13)  Bbb     0.2435    32.681    11.661    10.901  0.1128  0.7831  0.6115
              Bcc     0.3242    43.510    15.525    14.513  0.1560 -0.6218  0.7675
 
              Baa    -0.5520   -74.069   -26.430   -24.707 -0.0967  0.3119  0.9452
     8 C(13)  Bbb     0.2081    27.929     9.966     9.316  0.8018  0.5871 -0.1117
              Bcc     0.3438    46.140    16.464    15.391 -0.5897  0.7470 -0.3069
 
              Baa    -0.5643   -75.718   -27.018   -25.257 -0.6595  0.7444 -0.1044
     9 C(13)  Bbb     0.1778    23.857     8.513     7.958 -0.3169 -0.1494  0.9366
              Bcc     0.3865    51.861    18.505    17.299  0.6816  0.6508  0.3344
 
              Baa    -1.1033    79.833    28.486    26.629  0.2070 -0.2669  0.9412
    10 O(17)  Bbb    -0.3792    27.440     9.791     9.153  0.9759 -0.0117 -0.2179
              Bcc     1.4825  -107.273   -38.278   -35.782  0.0691  0.9637  0.2580
 
              Baa    -1.0429    75.461    26.926    25.171  0.8584 -0.4364  0.2696
    11 O(17)  Bbb    -0.3856    27.903     9.956     9.307 -0.1205  0.3394  0.9329
              Bcc     1.4285  -103.364   -36.883   -34.478  0.4986  0.8333 -0.2388
 
              Baa    -1.2202    88.291    31.504    29.451  0.0132  0.9510 -0.3090
    12 O(17)  Bbb    -0.3381    24.463     8.729     8.160  0.9892 -0.0574 -0.1345
              Bcc     1.5582  -112.753   -40.233   -37.610  0.1457  0.3039  0.9415
 
              Baa    -1.2574    90.985    32.466    30.349  0.0323  0.9506 -0.3086
    13 O(17)  Bbb    -0.3084    22.317     7.963     7.444 -0.1016  0.3103  0.9452
              Bcc     1.5658  -113.303   -40.429   -37.794  0.9943  0.0008  0.1066
 
              Baa    -1.9969   144.492    51.558    48.197  0.9812 -0.1825  0.0635
    14 O(17)  Bbb     0.2276   -16.470    -5.877    -5.494  0.1821  0.9832  0.0114
              Bcc     1.7693  -128.023   -45.682   -42.704 -0.0645  0.0004  0.9979
 
              Baa    -5.9655  -800.199  -285.531  -266.918  0.9853  0.1640  0.0472
    15 Br(79) Bbb     2.9003   389.043   138.820   129.771  0.0666 -0.6242  0.7784
              Bcc     3.0652   411.155   146.710   137.147 -0.1571  0.7639  0.6260
 
              Baa    -0.2871  -153.196   -54.664   -51.101 -0.1536 -0.4633  0.8728
    16 H(1)   Bbb     0.1305    69.606    24.837    23.218  0.8922 -0.4447 -0.0790
              Bcc     0.1567    83.590    29.827    27.883  0.4248  0.7666  0.4816
 
              Baa    -0.3158  -168.469   -60.114   -56.195  0.5557 -0.4760  0.6816
    17 H(1)   Bbb     0.1461    77.935    27.809    25.996  0.8126  0.4841 -0.3245
              Bcc     0.1697    90.534    32.305    30.199 -0.1755  0.7342  0.6558
 
              Baa    -0.3161  -168.661   -60.182   -56.259  0.4393  0.6422 -0.6282
    18 H(1)   Bbb     0.1464    78.096    27.867    26.050  0.8799 -0.1667  0.4449
              Bcc     0.1697    90.564    32.316    30.209 -0.1810  0.7482  0.6383
 
              Baa    -0.3136  -167.297   -59.696   -55.804  0.4213  0.6542 -0.6281
    19 H(1)   Bbb     0.1467    78.281    27.933    26.112  0.8645 -0.0803  0.4962
              Bcc     0.1668    89.016    31.763    29.692 -0.2742  0.7521  0.5993
 
              Baa    -0.3120  -166.488   -59.407   -55.534  0.5404 -0.4793  0.6916
    20 H(1)   Bbb     0.1411    75.290    26.865    25.114  0.8260  0.4587 -0.3275
              Bcc     0.1709    91.198    32.542    30.420 -0.1603  0.7482  0.6438
 

 ---------------------------------------------------------------------------------

 No NMR shielding tensors so no spin-rotation constants.
 Leave Link  601 at Wed Jun 22 10:06:51 2016, MaxMem=   33554432 cpu:       0.3
 Merz-Kollman atomic radii used.
 Atom Element Radius
    1     6    1.50
    2     6    1.50
    3     6    1.50
    4     6    1.50
    5     6    1.50
    6     6    1.50
    7     6    1.50
    8     6    1.50
    9     6    1.50
   10     8    1.40
   11     8    1.40
   12     8    1.40
   13     8    1.40
   14     8    1.40
   15    35    2.30
   16     1    1.20
   17     1    1.20
   18     1    1.20
   19     1    1.20
   20     1    1.20
 Generate VDW surfaces: Layer= 4 Dens= 6 Start= 1.400 Inc= 0.200

 **********************************************************************

            Electrostatic Properties Using The SCF Density

 **********************************************************************

       Atomic Center    1 is at   0.202502  0.269062 -1.119206
       Atomic Center    2 is at   0.361288 -1.297690  0.699279
       Atomic Center    3 is at   1.567242  0.498277 -1.044254
       Atomic Center    4 is at   1.720980 -1.066834  0.779312
       Atomic Center    5 is at  -0.394788 -0.624177 -0.249817
       Atomic Center    6 is at   2.302594 -0.167837 -0.105147
       Atomic Center    7 is at  -2.489692  1.121690  0.712939
       Atomic Center    8 is at  -4.102144 -0.453580 -0.405958
       Atomic Center    9 is at  -2.709364  0.162899 -0.446534
       Atomic Center   10 is at  -2.246361  0.729649  1.871155
       Atomic Center   11 is at  -5.113204  0.160201 -0.719467
       Atomic Center   12 is at  -2.550417  2.356594  0.336999
       Atomic Center   13 is at  -4.096453 -1.683698 -0.002992
       Atomic Center   14 is at  -1.739225 -0.907808 -0.296470
       Atomic Center   15 is at   4.168989  0.143345 -0.009971
       Atomic Center   16 is at  -2.562838  0.688242 -1.401638
       Atomic Center   17 is at   2.324686 -1.580947  1.519073
       Atomic Center   18 is at   2.045081  1.195749 -1.722305
       Atomic Center   19 is at  -0.112880 -1.999706  1.375358
       Atomic Center   20 is at  -0.395084  0.789222 -1.858974
      ESP Fit Center   21 is at   0.604320  0.965030  0.820941
      ESP Fit Center   22 is at   0.310152  1.430782  0.626881
      ESP Fit Center   23 is at  -0.116780  1.391221  0.626881
      ESP Fit Center   24 is at   0.413829  1.738872  0.365719
      ESP Fit Center   25 is at  -0.008824  1.738872  0.365719
      ESP Fit Center   26 is at  -0.414358  1.619797  0.365719
      ESP Fit Center   27 is at   0.412970  2.002417  0.047492
      ESP Fit Center   28 is at  -0.007965  2.002417  0.047492
      ESP Fit Center   29 is at  -0.416668  1.901681  0.047492
      ESP Fit Center   30 is at   0.307540  2.206364 -0.315570
      ESP Fit Center   31 is at  -0.111379  2.183650 -0.315570
      ESP Fit Center   32 is at  -0.515620  2.071413 -0.315570
      ESP Fit Center   33 is at   0.514390  2.304960 -0.709516
      ESP Fit Center   34 is at   0.098183  2.326067 -0.709516
      ESP Fit Center   35 is at  -0.313754  2.262961 -0.709516
      ESP Fit Center   36 is at  -0.704555  2.118224 -0.709516
      ESP Fit Center   37 is at   0.202502  2.369062 -1.119206
      ESP Fit Center   38 is at  -0.207187  2.328711 -1.119206
      ESP Fit Center   39 is at   0.514390  2.304960 -1.528895
      ESP Fit Center   40 is at   0.917829 -1.662378 -1.528895
      ESP Fit Center   41 is at   0.721547 -1.600367 -1.922841
      ESP Fit Center   42 is at   1.111284 -1.445081 -1.922841
      ESP Fit Center   43 is at  -1.343580 -0.542385 -2.285903
      ESP Fit Center   44 is at  -1.104462 -0.888807 -2.285903
      ESP Fit Center   45 is at  -0.789388 -1.167939 -2.285903
      ESP Fit Center   46 is at  -0.416668 -1.363557 -2.285903
      ESP Fit Center   47 is at  -0.007965 -1.464293 -2.285903
      ESP Fit Center   48 is at   0.412970 -1.464293 -2.285903
      ESP Fit Center   49 is at   0.821673 -1.363557 -2.285903
      ESP Fit Center   50 is at   1.194392 -1.167939 -2.285903
      ESP Fit Center   51 is at  -0.769916 -0.853169 -2.604130
      ESP Fit Center   52 is at  -0.414358 -1.081673 -2.604130
      ESP Fit Center   53 is at  -0.008824 -1.200748 -2.604130
      ESP Fit Center   54 is at   0.413829 -1.200748 -2.604130
      ESP Fit Center   55 is at   0.819362 -1.081673 -2.604130
      ESP Fit Center   56 is at   1.174921 -0.853169 -2.604130
      ESP Fit Center   57 is at  -0.500590 -0.661983 -2.865292
      ESP Fit Center   58 is at  -0.116780 -0.853098 -2.865292
      ESP Fit Center   59 is at   0.310152 -0.892659 -2.865292
      ESP Fit Center   60 is at   0.722544 -0.775323 -2.865292
      ESP Fit Center   61 is at   1.064702 -0.516937 -2.865292
      ESP Fit Center   62 is at   1.006137  0.269062 -3.059353
      ESP Fit Center   63 is at   0.898471  0.670880 -3.059353
      ESP Fit Center   64 is at  -0.199315 -0.426907 -3.059353
      ESP Fit Center   65 is at   0.202502 -0.534573 -3.059353
      ESP Fit Center   66 is at   0.604320 -0.426907 -3.059353
      ESP Fit Center   67 is at   0.898471 -0.132756 -3.059353
      ESP Fit Center   68 is at   0.612192  0.269062 -3.178855
      ESP Fit Center   69 is at   0.407347 -0.085740 -3.178855
      ESP Fit Center   70 is at   0.770978 -1.297690  2.758928
      ESP Fit Center   71 is at   0.566133 -0.942889  2.758928
      ESP Fit Center   72 is at   0.156444 -0.942889  2.758928
      ESP Fit Center   73 is at   0.763106 -0.601722  2.639426
      ESP Fit Center   74 is at   0.361288 -0.494055  2.639426
      ESP Fit Center   75 is at  -0.040529 -0.601722  2.639426
      ESP Fit Center   76 is at  -0.334680 -0.895873  2.639426
      ESP Fit Center   77 is at   0.468938 -0.135970  2.445365
      ESP Fit Center   78 is at   0.042007 -0.175531  2.445365
      ESP Fit Center   79 is at  -0.341804 -0.366645  2.445365
      ESP Fit Center   80 is at  -0.630658 -0.683503  2.445365
      ESP Fit Center   81 is at   0.572615  0.172120  2.184203
      ESP Fit Center   82 is at   0.149962  0.172120  2.184203
      ESP Fit Center   83 is at  -0.255571  0.053044  2.184203
      ESP Fit Center   84 is at   0.571756  0.435665  1.865976
      ESP Fit Center   85 is at   0.150821  0.435665  1.865976
      ESP Fit Center   86 is at  -0.257882  0.334929  1.865976
      ESP Fit Center   87 is at   0.466326  0.639611  1.502914
      ESP Fit Center   88 is at   0.047408  0.616898  1.502914
      ESP Fit Center   89 is at   1.270070 -3.011833  1.502914
      ESP Fit Center   90 is at   0.673177  0.738208  1.108968
      ESP Fit Center   91 is at   1.076615 -3.229131  1.108968
      ESP Fit Center   92 is at   0.770978 -3.357339  0.699279
      ESP Fit Center   93 is at   1.164924 -3.237837  0.699279
      ESP Fit Center   94 is at  -0.154968 -3.291589  0.289589
      ESP Fit Center   95 is at   0.256969 -3.354696  0.289589
      ESP Fit Center   96 is at   0.673177 -3.333588  0.289589
      ESP Fit Center   97 is at   1.076615 -3.229131  0.289589
      ESP Fit Center   98 is at  -0.727497 -2.903529 -0.104357
      ESP Fit Center   99 is at  -0.356834 -3.100042 -0.104357
      ESP Fit Center  100 is at   0.047408 -3.212279 -0.104357
      ESP Fit Center  101 is at   0.466326 -3.234992 -0.104357
      ESP Fit Center  102 is at   0.880333 -3.167119 -0.104357
      ESP Fit Center  103 is at   1.270070 -3.011833 -0.104357
      ESP Fit Center  104 is at  -0.630602 -2.734691 -0.467419
      ESP Fit Center  105 is at  -0.257882 -2.930309 -0.467419
      ESP Fit Center  106 is at   0.150821 -3.031045 -0.467419
      ESP Fit Center  107 is at   0.571756 -3.031045 -0.467419
      ESP Fit Center  108 is at   0.980459 -2.930309 -0.467419
      ESP Fit Center  109 is at   1.353178 -2.734691 -0.467419
      ESP Fit Center  110 is at   0.149962 -2.767500 -0.785646
      ESP Fit Center  111 is at   0.572615 -2.767500 -0.785646
      ESP Fit Center  112 is at   0.978148 -2.648425 -0.785646
      ESP Fit Center  113 is at   1.333707 -2.419921 -0.785646
      ESP Fit Center  114 is at   0.468938 -2.459411 -1.046808
      ESP Fit Center  115 is at   0.881330 -2.342075 -1.046808
      ESP Fit Center  116 is at   1.223488 -2.083689 -1.046808
      ESP Fit Center  117 is at   1.247960  1.620437  0.701832
      ESP Fit Center  118 is at   0.864150  1.429322  0.701832
      ESP Fit Center  119 is at   1.355915  1.968087  0.440670
      ESP Fit Center  120 is at   0.950382  1.849012  0.440670
      ESP Fit Center  121 is at   0.594823  1.620508  0.440670
      ESP Fit Center  122 is at   1.356775  2.231632  0.122443
      ESP Fit Center  123 is at   0.948071  2.130896  0.122443
      ESP Fit Center  124 is at   0.575352  1.935278  0.122443
      ESP Fit Center  125 is at   1.672280  2.435579 -0.240619
      ESP Fit Center  126 is at   1.253361  2.412866 -0.240619
      ESP Fit Center  127 is at   0.849120  2.300629 -0.240619
      ESP Fit Center  128 is at   1.879130  2.534175 -0.634565
      ESP Fit Center  129 is at   1.462923  2.555283 -0.634565
      ESP Fit Center  130 is at   1.050986  2.492176 -0.634565
      ESP Fit Center  131 is at   0.660185  2.347439 -0.634565
      ESP Fit Center  132 is at   1.157552  2.557926 -1.044254
      ESP Fit Center  133 is at   0.763607  2.438424 -1.044254
      ESP Fit Center  134 is at   0.660185  2.347439 -1.453944
      ESP Fit Center  135 is at   1.462923 -1.558728 -1.453944
      ESP Fit Center  136 is at   1.253361 -1.416311 -1.847890
      ESP Fit Center  137 is at   1.672280 -1.439024 -1.847890
      ESP Fit Center  138 is at   1.356775 -1.235078 -2.210952
      ESP Fit Center  139 is at   1.777709 -1.235078 -2.210952
      ESP Fit Center  140 is at   2.186413 -1.134342 -2.210952
      ESP Fit Center  141 is at   1.355915 -0.971533 -2.529179
      ESP Fit Center  142 is at   1.778569 -0.971533 -2.529179
      ESP Fit Center  143 is at   2.184102 -0.852457 -2.529179
      ESP Fit Center  144 is at   1.247960 -0.623882 -2.790341
      ESP Fit Center  145 is at   1.674891 -0.663443 -2.790341
      ESP Fit Center  146 is at   2.087284 -0.546108 -2.790341
      ESP Fit Center  147 is at   2.429442 -0.287722 -2.790341
      ESP Fit Center  148 is at   1.165424 -0.197691 -2.984401
      ESP Fit Center  149 is at   1.567242 -0.305358 -2.984401
      ESP Fit Center  150 is at   1.969060 -0.197691 -2.984401
      ESP Fit Center  151 is at   2.263211  0.096460 -2.984401
      ESP Fit Center  152 is at   1.157552  0.498277 -3.103903
      ESP Fit Center  153 is at   1.362397  0.143476 -3.103903
      ESP Fit Center  154 is at   1.772087  0.143476 -3.103903
      ESP Fit Center  155 is at   1.516135 -0.712032  2.838961
      ESP Fit Center  156 is at   1.311291 -1.066834  2.838961
      ESP Fit Center  157 is at   2.122798 -0.370865  2.719459
      ESP Fit Center  158 is at   1.720980 -0.263198  2.719459
      ESP Fit Center  159 is at   1.319163 -0.370865  2.719459
      ESP Fit Center  160 is at   1.025012 -0.665016  2.719459
      ESP Fit Center  161 is at   0.917345 -1.066834  2.719459
      ESP Fit Center  162 is at   1.025012 -1.468651  2.719459
      ESP Fit Center  163 is at   1.828630  0.094887  2.525398
      ESP Fit Center  164 is at   1.401698  0.055326  2.525398
      ESP Fit Center  165 is at   1.017888 -0.135789  2.525398
      ESP Fit Center  166 is at   1.509654  0.402976  2.264236
      ESP Fit Center  167 is at   1.104120  0.283901  2.264236
      ESP Fit Center  168 is at   0.748562  0.055397  2.264236
      ESP Fit Center  169 is at   1.510513  0.666522  1.946009
      ESP Fit Center  170 is at   1.101810  0.565785  1.946009
      ESP Fit Center  171 is at   0.729090  0.370167  1.946009
      ESP Fit Center  172 is at   1.407099  0.847755  1.582947
      ESP Fit Center  173 is at   1.002858  0.735518  1.582947
      ESP Fit Center  174 is at   0.813923  0.782329  1.189001
      ESP Fit Center  175 is at   1.616661 -3.123839  1.189001
      ESP Fit Center  176 is at   1.720980 -3.166834  0.779312
      ESP Fit Center  177 is at   2.130670 -3.126483  0.779312
      ESP Fit Center  178 is at   1.616661 -3.123839  0.369622
      ESP Fit Center  179 is at   2.032868 -3.102731  0.369622
      ESP Fit Center  180 is at   2.436307 -2.998274  0.369622
      ESP Fit Center  181 is at   2.810461 -2.814743  0.369622
      ESP Fit Center  182 is at   1.407099 -2.981422 -0.024324
      ESP Fit Center  183 is at   1.826018 -3.004135 -0.024324
      ESP Fit Center  184 is at   2.240025 -2.936262 -0.024324
      ESP Fit Center  185 is at   2.629762 -2.780977 -0.024324
      ESP Fit Center  186 is at   1.510513 -2.800189 -0.387386
      ESP Fit Center  187 is at   1.931448 -2.800189 -0.387386
      ESP Fit Center  188 is at   2.340151 -2.699453 -0.387386
      ESP Fit Center  189 is at   1.509654 -2.536643 -0.705613
      ESP Fit Center  190 is at   1.932307 -2.536643 -0.705613
      ESP Fit Center  191 is at   2.337840 -2.417568 -0.705613
      ESP Fit Center  192 is at   1.401698 -2.188993 -0.966775
      ESP Fit Center  193 is at   1.828630 -2.228554 -0.966775
      ESP Fit Center  194 is at   1.319163 -1.762802 -1.160835
      ESP Fit Center  195 is at  -0.287139  0.537543  1.496270
      ESP Fit Center  196 is at  -0.183461  0.845633  1.235108
      ESP Fit Center  197 is at   0.597102  0.812824  0.916881
      ESP Fit Center  198 is at   0.224383  1.008442  0.916881
      ESP Fit Center  199 is at  -0.184321  1.109178  0.916881
      ESP Fit Center  200 is at  -0.499107 -2.681183 -0.659506
      ESP Fit Center  201 is at  -0.708669 -2.538766 -1.053452
      ESP Fit Center  202 is at  -0.289751 -2.561479 -1.053452
      ESP Fit Center  203 is at   0.124256 -2.493606 -1.053452
      ESP Fit Center  204 is at  -0.605255 -2.357533 -1.416514
      ESP Fit Center  205 is at  -0.184321 -2.357533 -1.416514
      ESP Fit Center  206 is at   0.224383 -2.256796 -1.416514
      ESP Fit Center  207 is at   0.597102 -2.061178 -1.416514
      ESP Fit Center  208 is at   0.912176 -1.782047 -1.416514
      ESP Fit Center  209 is at  -0.606115 -2.093987 -1.734741
      ESP Fit Center  210 is at  -0.183461 -2.093987 -1.734741
      ESP Fit Center  211 is at   0.222072 -1.974912 -1.734741
      ESP Fit Center  212 is at   0.577631 -1.746408 -1.734741
      ESP Fit Center  213 is at  -0.714070 -1.746337 -1.995903
      ESP Fit Center  214 is at  -0.287139 -1.785898 -1.995903
      ESP Fit Center  215 is at   0.125254 -1.668562 -1.995903
      ESP Fit Center  216 is at  -1.090756 -1.025995 -2.189964
      ESP Fit Center  217 is at  -0.796606 -1.320146 -2.189964
      ESP Fit Center  218 is at   1.330176  0.954394  1.379777
      ESP Fit Center  219 is at   1.310704  1.269164  1.061550
      ESP Fit Center  220 is at   0.995630  0.990032  1.061550
      ESP Fit Center  221 is at   1.310704 -1.604838 -1.271845
      ESP Fit Center  222 is at   1.683424 -1.800456 -1.271845
      ESP Fit Center  223 is at  -3.462111  2.243921  2.197863
      ESP Fit Center  224 is at  -3.796656  2.279559  1.879636
      ESP Fit Center  225 is at  -4.035775  1.933136  1.879636
      ESP Fit Center  226 is at  -4.185040  1.539555  1.879636
      ESP Fit Center  227 is at  -4.235778  1.121690  1.879636
      ESP Fit Center  228 is at  -0.728862  1.936336  1.516574
      ESP Fit Center  229 is at  -0.945155  2.295817  1.516574
      ESP Fit Center  230 is at  -4.152121  2.121940  1.516574
      ESP Fit Center  231 is at  -4.328279  1.741182  1.516574
      ESP Fit Center  232 is at  -4.418466  1.331456  1.516574
      ESP Fit Center  233 is at  -4.418466  0.911923  1.516574
      ESP Fit Center  234 is at  -4.328279  0.502198  1.516574
      ESP Fit Center  235 is at  -0.430043  1.121690  1.122628
      ESP Fit Center  236 is at  -0.472204  1.536294  1.122628
      ESP Fit Center  237 is at  -0.596962  1.933924  1.122628
      ESP Fit Center  238 is at  -4.454884  1.738273  1.122628
      ESP Fit Center  239 is at  -4.538774  1.330061  1.122628
      ESP Fit Center  240 is at  -0.430043  1.531379  0.712939
      ESP Fit Center  241 is at  -0.549545  1.925325  0.712939
      ESP Fit Center  242 is at  -4.429839  1.925325  0.712939
      ESP Fit Center  243 is at  -4.549341  1.531379  0.712939
      ESP Fit Center  244 is at  -0.596962  1.933924  0.303249
      ESP Fit Center  245 is at  -4.454884  1.738273  0.303249
      ESP Fit Center  246 is at  -4.102144 -0.453580  1.694042
      ESP Fit Center  247 is at  -4.306989 -0.098778  1.653691
      ESP Fit Center  248 is at  -4.511834 -0.453580  1.653691
      ESP Fit Center  249 is at  -4.503962  0.242389  1.534189
      ESP Fit Center  250 is at  -4.798113 -0.051762  1.534189
      ESP Fit Center  251 is at  -4.905779 -0.453580  1.534189
      ESP Fit Center  252 is at  -4.805237  0.477465  1.340128
      ESP Fit Center  253 is at  -5.094090  0.160607  1.340128
      ESP Fit Center  254 is at  -5.248976 -0.239200  1.340128
      ESP Fit Center  255 is at  -5.248976 -0.667960  1.340128
      ESP Fit Center  256 is at  -4.719004  0.897155  1.078966
      ESP Fit Center  257 is at  -5.526919 -0.871931  1.078966
      ESP Fit Center  258 is at  -5.409108 -1.611449 -1.572655
      ESP Fit Center  259 is at  -5.074563 -1.575811 -1.890882
      ESP Fit Center  260 is at  -4.719004 -1.804314 -1.890882
      ESP Fit Center  261 is at  -3.485284 -1.804314 -1.890882
      ESP Fit Center  262 is at  -3.129726 -1.575811 -1.890882
      ESP Fit Center  263 is at  -4.805237 -1.384624 -2.152044
      ESP Fit Center  264 is at  -4.421426 -1.575739 -2.152044
      ESP Fit Center  265 is at  -3.994495 -1.615300 -2.152044
      ESP Fit Center  266 is at  -3.582102 -1.497965 -2.152044
      ESP Fit Center  267 is at  -3.239944 -1.239579 -2.152044
      ESP Fit Center  268 is at  -4.503962 -1.149548 -2.346105
      ESP Fit Center  269 is at  -4.102144 -1.257215 -2.346105
      ESP Fit Center  270 is at  -3.700327 -1.149548 -2.346105
      ESP Fit Center  271 is at  -3.406176 -0.855397 -2.346105
      ESP Fit Center  272 is at  -3.692455 -0.453580 -2.465607
      ESP Fit Center  273 is at  -3.897299 -0.098778 -2.465607
      ESP Fit Center  274 is at  -4.306989 -0.808381 -2.465607
      ESP Fit Center  275 is at  -3.897299 -0.808381 -2.465607
      ESP Fit Center  276 is at  -4.102144 -0.453580 -2.505958
      ESP Fit Center  277 is at  -2.920690 -1.306911 -1.931459
      ESP Fit Center  278 is at  -3.028646 -0.959261 -2.192621
      ESP Fit Center  279 is at  -2.601714 -0.998822 -2.192621
      ESP Fit Center  280 is at  -2.246361  0.729649  3.831155
      ESP Fit Center  281 is at  -1.838854  0.729649  3.788324
      ESP Fit Center  282 is at  -2.042607  1.082561  3.788324
      ESP Fit Center  283 is at  -2.450114  1.082561  3.788324
      ESP Fit Center  284 is at  -2.653868  0.729649  3.788324
      ESP Fit Center  285 is at  -2.450114  0.376738  3.788324
      ESP Fit Center  286 is at  -2.042607  0.376738  3.788324
      ESP Fit Center  287 is at  -1.449157  0.729649  3.661704
      ESP Fit Center  288 is at  -1.555962  1.128251  3.661704
      ESP Fit Center  289 is at  -1.847759  1.420048  3.661704
      ESP Fit Center  290 is at  -2.246361  1.526853  3.661704
      ESP Fit Center  291 is at  -2.644963  1.420048  3.661704
      ESP Fit Center  292 is at  -2.936760  1.128251  3.661704
      ESP Fit Center  293 is at  -3.043565  0.729649  3.661704
      ESP Fit Center  294 is at  -2.936760  0.331047  3.661704
      ESP Fit Center  295 is at  -2.644963  0.039251  3.661704
      ESP Fit Center  296 is at  -2.246361 -0.067555  3.661704
      ESP Fit Center  297 is at  -1.847759  0.039251  3.661704
      ESP Fit Center  298 is at  -1.555962  0.331047  3.661704
      ESP Fit Center  299 is at  -1.094302  0.729649  3.456828
      ESP Fit Center  300 is at  -1.172098  1.145821  3.456828
      ESP Fit Center  301 is at  -1.394979  1.505786  3.456828
      ESP Fit Center  302 is at  -1.732844  1.760930  3.456828
      ESP Fit Center  303 is at  -2.140062  1.876794  3.456828
      ESP Fit Center  304 is at  -2.561637  1.837729  3.456828
      ESP Fit Center  305 is at  -2.940632  1.649012  3.456828
      ESP Fit Center  306 is at  -3.225861  1.336130  3.456828
      ESP Fit Center  307 is at  -3.378804  0.941340  3.456828
      ESP Fit Center  308 is at  -3.378804  0.517959  3.456828
      ESP Fit Center  309 is at  -3.225861  0.123168  3.456828
      ESP Fit Center  310 is at  -2.940632 -0.189714  3.456828
      ESP Fit Center  311 is at  -2.561637 -0.378431  3.456828
      ESP Fit Center  312 is at  -2.140062 -0.417495  3.456828
      ESP Fit Center  313 is at  -1.732844 -0.301632  3.456828
      ESP Fit Center  314 is at  -1.394979 -0.046488  3.456828
      ESP Fit Center  315 is at  -1.172098  0.313478  3.456828
      ESP Fit Center  316 is at  -0.789797  0.729649  3.182651
      ESP Fit Center  317 is at  -0.848798  1.140011  3.182651
      ESP Fit Center  318 is at  -1.021021  1.517127  3.182651
      ESP Fit Center  319 is at  -1.292514  1.830447  3.182651
      ESP Fit Center  320 is at  -1.641282  2.054586  3.182651
      ESP Fit Center  321 is at  -2.039070  2.171387  3.182651
      ESP Fit Center  322 is at  -2.453652  2.171387  3.182651
      ESP Fit Center  323 is at  -2.851439  2.054586  3.182651
      ESP Fit Center  324 is at  -3.200207  1.830447  3.182651
      ESP Fit Center  325 is at  -3.471700  1.517127  3.182651
      ESP Fit Center  326 is at  -3.643924  1.140011  3.182651
      ESP Fit Center  327 is at  -3.702925  0.729649  3.182651
      ESP Fit Center  328 is at  -3.643924  0.319288  3.182651
      ESP Fit Center  329 is at  -3.471700 -0.057829  3.182651
      ESP Fit Center  330 is at  -3.200207 -0.371148  3.182651
      ESP Fit Center  331 is at  -2.851439 -0.595288  3.182651
      ESP Fit Center  332 is at  -2.453652 -0.712089  3.182651
      ESP Fit Center  333 is at  -2.039070 -0.712089  3.182651
      ESP Fit Center  334 is at  -1.641282 -0.595288  3.182651
      ESP Fit Center  335 is at  -1.292514 -0.371148  3.182651
      ESP Fit Center  336 is at  -1.021021 -0.057829  3.182651
      ESP Fit Center  337 is at  -0.848798  0.319288  3.182651
      ESP Fit Center  338 is at  -0.548951  0.729649  2.851155
      ESP Fit Center  339 is at  -0.602278  1.151778  2.851155
      ESP Fit Center  340 is at  -0.758909  1.547383  2.851155
      ESP Fit Center  341 is at  -1.009002  1.891606  2.851155
      ESP Fit Center  342 is at  -1.336843  2.162820  2.851155
      ESP Fit Center  343 is at  -1.721832  2.343982  2.851155
      ESP Fit Center  344 is at  -2.139780  2.423710  2.851155
      ESP Fit Center  345 is at  -2.564424  2.396993  2.851155
      ESP Fit Center  346 is at  -2.969083  2.265512  2.851155
      ESP Fit Center  347 is at  -3.328331  2.037526  2.851155
      ESP Fit Center  348 is at  -3.619594  1.727362  2.851155
      ESP Fit Center  349 is at  -3.824573  1.354508  2.851155
      ESP Fit Center  350 is at  -3.930386  0.942391  2.851155
      ESP Fit Center  351 is at  -3.930386  0.516907  2.851155
      ESP Fit Center  352 is at  -3.824573  0.104791  2.851155
      ESP Fit Center  353 is at  -3.619594 -0.268063  2.851155
      ESP Fit Center  354 is at  -3.328331 -0.578227  2.851155
      ESP Fit Center  355 is at  -2.969083 -0.806213  2.851155
      ESP Fit Center  356 is at  -2.564424 -0.937695  2.851155
      ESP Fit Center  357 is at  -2.139780 -0.964411  2.851155
      ESP Fit Center  358 is at  -1.721832 -0.884683  2.851155
      ESP Fit Center  359 is at  -1.336843 -0.703521  2.851155
      ESP Fit Center  360 is at  -1.009002 -0.432308  2.851155
      ESP Fit Center  361 is at  -0.758909 -0.088084  2.851155
      ESP Fit Center  362 is at  -0.602278  0.307521  2.851155
      ESP Fit Center  363 is at  -0.382290  0.729649  2.476828
      ESP Fit Center  364 is at  -0.429026  1.144444  2.476828
      ESP Fit Center  365 is at  -0.566891  1.538439  2.476828
      ESP Fit Center  366 is at  -0.788972  1.891878  2.476828
      ESP Fit Center  367 is at  -1.084132  2.187038  2.476828
      ESP Fit Center  368 is at  -1.437571  2.409119  2.476828
      ESP Fit Center  369 is at  -1.831566  2.546984  2.476828
      ESP Fit Center  370 is at  -2.246361  2.593720  2.476828
      ESP Fit Center  371 is at  -2.661156  2.546984  2.476828
      ESP Fit Center  372 is at  -3.055151  2.409119  2.476828
      ESP Fit Center  373 is at  -3.408590  2.187038  2.476828
      ESP Fit Center  374 is at  -3.703750  1.891878  2.476828
      ESP Fit Center  375 is at  -3.925831  1.538439  2.476828
      ESP Fit Center  376 is at  -4.063695  1.144444  2.476828
      ESP Fit Center  377 is at  -4.110432  0.729649  2.476828
      ESP Fit Center  378 is at  -4.063695  0.314855  2.476828
      ESP Fit Center  379 is at  -3.925831 -0.079141  2.476828
      ESP Fit Center  380 is at  -3.703750 -0.432580  2.476828
      ESP Fit Center  381 is at  -3.408590 -0.727740  2.476828
      ESP Fit Center  382 is at  -3.055151 -0.949820  2.476828
      ESP Fit Center  383 is at  -2.661156 -1.087685  2.476828
      ESP Fit Center  384 is at  -2.246361 -1.134421  2.476828
      ESP Fit Center  385 is at  -1.831566 -1.087685  2.476828
      ESP Fit Center  386 is at  -1.437571 -0.949820  2.476828
      ESP Fit Center  387 is at  -1.084132 -0.727740  2.476828
      ESP Fit Center  388 is at  -0.788972 -0.432580  2.476828
      ESP Fit Center  389 is at  -0.566891 -0.079141  2.476828
      ESP Fit Center  390 is at  -0.429026  0.314855  2.476828
      ESP Fit Center  391 is at  -0.297098  0.729649  2.076031
      ESP Fit Center  392 is at  -0.342671  1.148683  2.076031
      ESP Fit Center  393 is at  -0.477258  1.548124  2.076031
      ESP Fit Center  394 is at  -0.694566  1.909293  2.076031
      ESP Fit Center  395 is at  -0.984435  2.215304  2.076031
      ESP Fit Center  396 is at  -1.333310  2.451847  2.076031
      ESP Fit Center  397 is at  -4.093586  1.352052  2.076031
      ESP Fit Center  398 is at  -4.184197  0.940402  2.076031
      ESP Fit Center  399 is at  -4.184197  0.518897  2.076031
      ESP Fit Center  400 is at  -4.093586  0.107247  2.076031
      ESP Fit Center  401 is at  -3.916601 -0.275301  2.076031
      ESP Fit Center  402 is at  -3.661517 -0.610858  2.076031
      ESP Fit Center  403 is at  -3.340262 -0.883734  2.076031
      ESP Fit Center  404 is at  -2.967857 -1.081171  2.076031
      ESP Fit Center  405 is at  -2.561717 -1.193935  2.076031
      ESP Fit Center  406 is at  -2.140830 -1.216755  2.076031
      ESP Fit Center  407 is at  -1.724878 -1.148563  2.076031
      ESP Fit Center  408 is at  -1.333310 -0.992548  2.076031
      ESP Fit Center  409 is at  -0.342671  0.310615  2.076031
      ESP Fit Center  410 is at  -0.297098  0.729649  1.666279
      ESP Fit Center  411 is at  -0.342671  1.148683  1.666279
      ESP Fit Center  412 is at  -0.477258  1.548124  1.666279
      ESP Fit Center  413 is at  -0.694566  1.909293  1.666279
      ESP Fit Center  414 is at  -4.093586  0.107247  1.666279
      ESP Fit Center  415 is at  -3.661517 -0.610858  1.666279
      ESP Fit Center  416 is at  -3.340262 -0.883734  1.666279
      ESP Fit Center  417 is at  -2.967857 -1.081171  1.666279
      ESP Fit Center  418 is at  -2.561717 -1.193935  1.666279
      ESP Fit Center  419 is at  -2.140830 -1.216755  1.666279
      ESP Fit Center  420 is at  -1.724878 -1.148563  1.666279
      ESP Fit Center  421 is at  -0.429026  1.144444  1.265482
      ESP Fit Center  422 is at  -5.316958  0.513112  1.197702
      ESP Fit Center  423 is at  -5.520711  0.160201  1.197702
      ESP Fit Center  424 is at  -5.113204  0.957404  1.071082
      ESP Fit Center  425 is at  -5.511806  0.850599  1.071082
      ESP Fit Center  426 is at  -5.803603  0.558803  1.071082
      ESP Fit Center  427 is at  -5.910408  0.160201  1.071082
      ESP Fit Center  428 is at  -5.803603 -0.238401  1.071082
      ESP Fit Center  429 is at  -4.599687  1.191482  0.866206
      ESP Fit Center  430 is at  -5.006906  1.307345  0.866206
      ESP Fit Center  431 is at  -5.428480  1.268281  0.866206
      ESP Fit Center  432 is at  -5.807475  1.079564  0.866206
      ESP Fit Center  433 is at  -6.092705  0.766682  0.866206
      ESP Fit Center  434 is at  -6.245647  0.371891  0.866206
      ESP Fit Center  435 is at  -6.245647 -0.051490  0.866206
      ESP Fit Center  436 is at  -6.092705 -0.446280  0.866206
      ESP Fit Center  437 is at  -5.807475 -0.759162  0.866206
      ESP Fit Center  438 is at  -4.905914  1.601939  0.592029
      ESP Fit Center  439 is at  -5.320495  1.601939  0.592029
      ESP Fit Center  440 is at  -5.718283  1.485138  0.592029
      ESP Fit Center  441 is at  -6.067051  1.260998  0.592029
      ESP Fit Center  442 is at  -6.338544  0.947678  0.592029
      ESP Fit Center  443 is at  -6.510767  0.570562  0.592029
      ESP Fit Center  444 is at  -6.569768  0.160201  0.592029
      ESP Fit Center  445 is at  -6.510767 -0.250161  0.592029
      ESP Fit Center  446 is at  -6.338544 -0.627277  0.592029
      ESP Fit Center  447 is at  -6.067051 -0.940597  0.592029
      ESP Fit Center  448 is at  -4.588676  1.774533  0.260533
      ESP Fit Center  449 is at  -5.006623  1.854261  0.260533
      ESP Fit Center  450 is at  -5.431267  1.827545  0.260533
      ESP Fit Center  451 is at  -5.835926  1.696063  0.260533
      ESP Fit Center  452 is at  -6.195174  1.468077  0.260533
      ESP Fit Center  453 is at  -6.486438  1.157913  0.260533
      ESP Fit Center  454 is at  -6.691416  0.785059  0.260533
      ESP Fit Center  455 is at  -6.797230  0.372942  0.260533
      ESP Fit Center  456 is at  -6.797230 -0.052541  0.260533
      ESP Fit Center  457 is at  -6.691416 -0.464658  0.260533
      ESP Fit Center  458 is at  -6.486438 -0.837512  0.260533
      ESP Fit Center  459 is at  -6.195174 -1.147676  0.260533
      ESP Fit Center  460 is at  -4.698410  1.977535 -0.113794
      ESP Fit Center  461 is at  -5.113204  2.024271 -0.113794
      ESP Fit Center  462 is at  -5.527999  1.977535 -0.113794
      ESP Fit Center  463 is at  -5.921994  1.839670 -0.113794
      ESP Fit Center  464 is at  -6.275433  1.617590 -0.113794
      ESP Fit Center  465 is at  -6.570594  1.322430 -0.113794
      ESP Fit Center  466 is at  -6.792674  0.968991 -0.113794
      ESP Fit Center  467 is at  -6.930539  0.574995 -0.113794
[...]
 8049 Fit      -0.128774
 8050 Fit      -0.125120
 8051 Fit      -0.121912
 8052 Fit      -0.119069
 8053 Fit      -0.116531
 8054 Fit      -0.114248
 8055 Fit      -0.112185
 8056 Fit      -0.110317
 8057 Fit      -0.108626
 8058 Fit      -0.107100
 8059 Fit      -0.105735
 8060 Fit      -0.104530
 8061 Fit      -0.103486
 8062 Fit      -0.102608
 8063 Fit      -0.101902
 8064 Fit      -0.101374
 8065 Fit      -0.101031
 8066 Fit      -0.101515
 8067 Fit      -0.101558
 8068 Fit      -0.101806
 8069 Fit      -0.102262
 8070 Fit      -0.102925
 8071 Fit      -0.103794
 8072 Fit      -0.104869
 8073 Fit      -0.106146
 8074 Fit      -0.107625
 8075 Fit      -0.109302
 8076 Fit      -0.111179
 8077 Fit      -0.113259
 8078 Fit      -0.115547
 8079 Fit      -0.118053
 8080 Fit      -0.120788
 8081 Fit      -0.123770
 8082 Fit      -0.127019
 8083 Fit      -0.130558
 8084 Fit      -0.134411
 8085 Fit      -0.138602
 8086 Fit      -0.143159
 8087 Fit      -0.148120
 8088 Fit      -0.169989
 8089 Fit      -0.161425
 8090 Fit      -0.153687
 8091 Fit      -0.146841
 8092 Fit      -0.140857
 8093 Fit      -0.135653
 8094 Fit      -0.131129
 8095 Fit      -0.127183
 8096 Fit      -0.123722
 8097 Fit      -0.120666
 8098 Fit      -0.117949
 8099 Fit      -0.115518
 8100 Fit      -0.113333
 8101 Fit      -0.111362
 8102 Fit      -0.109585
 8103 Fit      -0.107988
 8104 Fit      -0.106563
 8105 Fit      -0.105307
 8106 Fit      -0.104222
 8107 Fit      -0.103310
 8108 Fit      -0.102577
 8109 Fit      -0.102030
 8110 Fit      -0.101674
 8111 Fit      -0.102334
 8112 Fit      -0.102381
 8113 Fit      -0.102644
 8114 Fit      -0.103128
 8115 Fit      -0.103830
 8116 Fit      -0.104751
 8117 Fit      -0.105888
 8118 Fit      -0.107238
 8119 Fit      -0.108800
 8120 Fit      -0.110572
 8121 Fit      -0.112555
 8122 Fit      -0.114753
 8123 Fit      -0.117171
 8124 Fit      -0.119821
 8125 Fit      -0.122715
 8126 Fit      -0.125872
 8127 Fit      -0.129312
 8128 Fit      -0.133058
 8129 Fit      -0.137135
 8130 Fit      -0.141576
 8131 Fit      -0.146426
 8132 Fit      -0.182797
 8133 Fit      -0.174836
 8134 Fit      -0.166772
 8135 Fit      -0.159035
 8136 Fit      -0.151890
 8137 Fit      -0.145455
 8138 Fit      -0.139751
 8139 Fit      -0.134735
 8140 Fit      -0.130338
 8141 Fit      -0.126480
 8142 Fit      -0.123084
 8143 Fit      -0.120078
 8144 Fit      -0.117405
 8145 Fit      -0.115016
 8146 Fit      -0.112875
 8147 Fit      -0.110954
 8148 Fit      -0.109236
 8149 Fit      -0.107709
 8150 Fit      -0.106367
 8151 Fit      -0.105210
 8152 Fit      -0.104239
 8153 Fit      -0.103461
 8154 Fit      -0.102880
 8155 Fit      -0.102502
 8156 Fit      -0.103333
 8157 Fit      -0.103384
 8158 Fit      -0.103664
 8159 Fit      -0.104176
 8160 Fit      -0.104919
 8161 Fit      -0.105891
 8162 Fit      -0.107090
 8163 Fit      -0.108514
 8164 Fit      -0.110160
 8165 Fit      -0.112027
 8166 Fit      -0.114117
 8167 Fit      -0.116433
 8168 Fit      -0.118984
 8169 Fit      -0.121779
 8170 Fit      -0.124835
 8171 Fit      -0.128169
 8172 Fit      -0.131804
 8173 Fit      -0.135767
 8174 Fit      -0.140092
 8175 Fit      -0.144832
 8176 Fit      -0.150064
 8177 Fit      -0.189547
 8178 Fit      -0.183824
 8179 Fit      -0.177380
 8180 Fit      -0.170427
 8181 Fit      -0.163306
 8182 Fit      -0.156354
 8183 Fit      -0.149818
 8184 Fit      -0.143838
 8185 Fit      -0.138463
 8186 Fit      -0.133686
 8187 Fit      -0.129462
 8188 Fit      -0.125733
 8189 Fit      -0.122435
 8190 Fit      -0.119510
 8191 Fit      -0.116908
 8192 Fit      -0.114586
 8193 Fit      -0.112515
 8194 Fit      -0.110669
 8195 Fit      -0.109036
 8196 Fit      -0.107605
 8197 Fit      -0.106375
 8198 Fit      -0.105345
 8199 Fit      -0.104521
 8200 Fit      -0.103907
 8201 Fit      -0.103509
 8202 Fit      -0.104509
 8203 Fit      -0.104568
 8204 Fit      -0.104878
 8205 Fit      -0.105440
 8206 Fit      -0.106254
 8207 Fit      -0.107317
 8208 Fit      -0.108627
 8209 Fit      -0.110180
 8210 Fit      -0.111975
 8211 Fit      -0.114010
 8212 Fit      -0.116289
 8213 Fit      -0.118817
 8214 Fit      -0.121603
 8215 Fit      -0.124662
 8216 Fit      -0.128010
 8217 Fit      -0.131671
 8218 Fit      -0.135675
 8219 Fit      -0.140058
 8220 Fit      -0.144876
 8221 Fit      -0.150194
 8222 Fit      -0.156071
 8223 Fit      -0.188400
 8224 Fit      -0.184563
 8225 Fit      -0.179862
 8226 Fit      -0.174424
 8227 Fit      -0.168409
 8228 Fit      -0.162066
 8229 Fit      -0.155686
 8230 Fit      -0.149526
 8231 Fit      -0.143765
 8232 Fit      -0.138501
 8233 Fit      -0.133765
 8234 Fit      -0.129544
 8235 Fit      -0.125799
 8236 Fit      -0.122481
 8237 Fit      -0.119539
 8238 Fit      -0.116929
 8239 Fit      -0.114613
 8240 Fit      -0.112560
 8241 Fit      -0.110752
 8242 Fit      -0.109176
 8243 Fit      -0.107825
 8244 Fit      -0.106698
 8245 Fit      -0.105797
 8246 Fit      -0.105128
 8247 Fit      -0.104697
 8248 Fit      -0.105857
 8249 Fit      -0.105927
 8250 Fit      -0.106271
 8251 Fit      -0.106891
 8252 Fit      -0.107784
 8253 Fit      -0.108949
 8254 Fit      -0.110381
 8255 Fit      -0.112078
 8256 Fit      -0.114038
 8257 Fit      -0.116260
 8258 Fit      -0.118749
 8259 Fit      -0.121511
 8260 Fit      -0.124559
 8261 Fit      -0.127908
 8262 Fit      -0.131579
 8263 Fit      -0.135599
 8264 Fit      -0.140001
 8265 Fit      -0.144821
 8266 Fit      -0.150083
 8267 Fit      -0.155757
 8268 Fit      -0.161704
 8269 Fit      -0.167631
 8270 Fit      -0.181573
 8271 Fit      -0.180862
 8272 Fit      -0.178633
 8273 Fit      -0.175220
 8274 Fit      -0.170884
 8275 Fit      -0.165841
 8276 Fit      -0.160323
 8277 Fit      -0.154588
 8278 Fit      -0.148890
 8279 Fit      -0.143434
 8280 Fit      -0.138354
 8281 Fit      -0.133720
 8282 Fit      -0.129550
 8283 Fit      -0.125829
 8284 Fit      -0.122522
 8285 Fit      -0.119592
 8286 Fit      -0.117000
 8287 Fit      -0.114713
 8288 Fit      -0.112707
 8289 Fit      -0.110966
 8290 Fit      -0.109478
 8291 Fit      -0.108241
 8292 Fit      -0.107256
 8293 Fit      -0.106527
 8294 Fit      -0.106059
 8295 Fit      -0.107379
 8296 Fit      -0.107461
 8297 Fit      -0.107844
 8298 Fit      -0.108528
 8299 Fit      -0.109510
 8300 Fit      -0.110788
 8301 Fit      -0.112358
 8302 Fit      -0.114215
 8303 Fit      -0.116357
 8304 Fit      -0.118786
 8305 Fit      -0.121504
 8306 Fit      -0.124521
 8307 Fit      -0.127848
 8308 Fit      -0.131500
 8309 Fit      -0.135493
 8310 Fit      -0.139843
 8311 Fit      -0.144548
 8312 Fit      -0.149567
 8313 Fit      -0.154773
 8314 Fit      -0.159922
 8315 Fit      -0.164647
 8316 Fit      -0.168511
 8317 Fit      -0.171101
 8318 Fit      -0.172156
 8319 Fit      -0.171647
 8320 Fit      -0.169737
 8321 Fit      -0.166673
 8322 Fit      -0.162708
 8323 Fit      -0.158093
 8324 Fit      -0.153083
 8325 Fit      -0.147931
 8326 Fit      -0.142860
 8327 Fit      -0.138035
 8328 Fit      -0.133562
 8329 Fit      -0.129491
 8330 Fit      -0.125832
 8331 Fit      -0.122571
 8332 Fit      -0.119682
 8333 Fit      -0.117136
 8334 Fit      -0.114909
 8335 Fit      -0.112982
 8336 Fit      -0.111341
 8337 Fit      -0.109980
 8338 Fit      -0.108900
 8339 Fit      -0.108103
 8340 Fit      -0.107594
 8341 Fit      -0.109074
 8342 Fit      -0.109177
 8343 Fit      -0.109627
 8344 Fit      -0.110422
 8345 Fit      -0.111559
 8346 Fit      -0.113034
 8347 Fit      -0.114840
 8348 Fit      -0.116972
 8349 Fit      -0.119428
 8350 Fit      -0.122207
 8351 Fit      -0.125312
 8352 Fit      -0.128748
 8353 Fit      -0.132516
 8354 Fit      -0.136612
 8355 Fit      -0.141008
 8356 Fit      -0.145630
 8357 Fit      -0.150322
 8358 Fit      -0.154821
 8359 Fit      -0.158768
 8360 Fit      -0.161769
 8361 Fit      -0.163496
 8362 Fit      -0.163785
 8363 Fit      -0.162662
 8364 Fit      -0.160298
 8365 Fit      -0.156937
 8366 Fit      -0.152852
 8367 Fit      -0.148321
 8368 Fit      -0.143612
 8369 Fit      -0.138952
 8370 Fit      -0.134509
 8371 Fit      -0.130392
 8372 Fit      -0.126653
 8373 Fit      -0.123307
 8374 Fit      -0.120348
 8375 Fit      -0.117759
 8376 Fit      -0.115521
 8377 Fit      -0.113621
 8378 Fit      -0.112051
 8379 Fit      -0.110808
 8380 Fit      -0.109894
 8381 Fit      -0.109314
 8382 Fit      -0.110946
 8383 Fit      -0.111087
 8384 Fit      -0.111655
 8385 Fit      -0.112647
 8386 Fit      -0.114057
 8387 Fit      -0.115876
 8388 Fit      -0.118094
 8389 Fit      -0.120700
 8390 Fit      -0.123687
 8391 Fit      -0.127043
 8392 Fit      -0.130752
 8393 Fit      -0.134781
 8394 Fit      -0.139058
 8395 Fit      -0.143445
 8396 Fit      -0.147705
 8397 Fit      -0.151496
 8398 Fit      -0.154421
 8399 Fit      -0.156128
 8400 Fit      -0.156413
 8401 Fit      -0.155274
 8402 Fit      -0.152880
 8403 Fit      -0.149505
 8404 Fit      -0.145468
 8405 Fit      -0.141090
 8406 Fit      -0.136653
 8407 Fit      -0.132376
 8408 Fit      -0.128401
 8409 Fit      -0.124808
 8410 Fit      -0.121628
 8411 Fit      -0.118868
 8412 Fit      -0.116524
 8413 Fit      -0.114588
 8414 Fit      -0.113058
 8415 Fit      -0.111938
 8416 Fit      -0.111232
 8417 Fit      -0.113005
 8418 Fit      -0.113186
 8419 Fit      -0.113877
 8420 Fit      -0.115072
 8421 Fit      -0.116758
 8422 Fit      -0.118918
 8423 Fit      -0.121528
 8424 Fit      -0.124562
 8425 Fit      -0.127982
 8426 Fit      -0.131729
 8427 Fit      -0.135700
 8428 Fit      -0.139722
 8429 Fit      -0.143521
 8430 Fit      -0.146735
 8431 Fit      -0.148975
 8432 Fit      -0.149933
 8433 Fit      -0.149482
 8434 Fit      -0.147705
 8435 Fit      -0.144845
 8436 Fit      -0.141237
 8437 Fit      -0.137233
 8438 Fit      -0.133146
 8439 Fit      -0.129215
 8440 Fit      -0.125598
 8441 Fit      -0.122386
 8442 Fit      -0.119621
 8443 Fit      -0.117323
 8444 Fit      -0.115504
 8445 Fit      -0.114172
 8446 Fit      -0.113336
 8447 Fit      -0.115262
 8448 Fit      -0.115521
 8449 Fit      -0.116455
 8450 Fit      -0.118045
 8451 Fit      -0.120255
 8452 Fit      -0.123033
 8453 Fit      -0.126304
 8454 Fit      -0.129955
 8455 Fit      -0.133805
 8456 Fit      -0.137570
 8457 Fit      -0.140848
 8458 Fit      -0.143176
 8459 Fit      -0.144159
 8460 Fit      -0.143622
 8461 Fit      -0.141670
 8462 Fit      -0.138631
 8463 Fit      -0.134941
 8464 Fit      -0.131031
 8465 Fit      -0.127243
 8466 Fit      -0.123812
 8467 Fit      -0.120877
 8468 Fit      -0.118516
 8469 Fit      -0.116774
 8470 Fit      -0.115683
 8471 Fit      -0.117736
 8472 Fit      -0.118132
 8473 Fit      -0.119479
 8474 Fit      -0.121707
 8475 Fit      -0.124686
 8476 Fit      -0.128210
 8477 Fit      -0.131947
 8478 Fit      -0.135407
 8479 Fit      -0.137964
 8480 Fit      -0.139035
 8481 Fit      -0.138347
 8482 Fit      -0.136074
 8483 Fit      -0.132740
 8484 Fit      -0.128980
 8485 Fit      -0.125345
 8486 Fit      -0.122217
 8487 Fit      -0.119828
 8488 Fit      -0.118310
 8489 Fit      -0.120451
 8490 Fit      -0.121134
 8491 Fit      -0.123272
 8492 Fit      -0.126502
 8493 Fit      -0.130143
 8494 Fit      -0.133171
 8495 Fit      -0.134473
 8496 Fit      -0.133489
 8497 Fit      -0.130635
 8498 Fit      -0.126991
 8499 Fit      -0.123641
 8500 Fit      -0.121330
 8501 Fit      -0.123438
 8502 Fit      -0.124949
 8503 Fit      -0.128404
 8504 Fit      -0.130396
 8505 Fit      -0.128633
 8506 Fit      -0.125149
 8507 Fit      -0.126737
 8508 Fit      -0.219784
 8509 Fit      -0.228342
 8510 Fit      -0.256283
 8511 Fit      -0.261780
 8512 Fit      -0.221714
 8513 Fit      -0.215579
 8514 Fit      -0.210994
 8515 Fit      -0.208151
 8516 Fit      -0.203958
 8517 Fit      -0.205123
 8518 Fit      -0.207580
 8519 Fit      -0.211947
 8520 Fit      -0.218176
 8521 Fit      -0.225307
 8522 Fit      -0.232118
 8523 Fit      -0.238026
 8524 Fit      -0.243459
 8525 Fit      -0.249269
 8526 Fit      -0.221859
 8527 Fit      -0.215292
 8528 Fit      -0.210049
 8529 Fit      -0.206371
 8530 Fit      -0.204311
 8531 Fit      -0.203641
 8532 Fit      -0.202502
 8533 Fit      -0.204055
 8534 Fit      -0.207332
 8535 Fit      -0.212366
 8536 Fit      -0.218454
 8537 Fit      -0.224571
 8538 Fit      -0.230215
 8539 Fit      -0.235438
 8540 Fit      -0.239792
 8541 Fit      -0.241604
 8542 Fit      -0.239261
 8543 Fit      -0.233285
 8544 Fit      -0.225803
 8545 Fit      -0.218476
 8546 Fit      -0.212096
 8547 Fit      -0.207141
 8548 Fit      -0.203913
 8549 Fit      -0.202433
 8550 Fit      -0.203072
 8551 Fit      -0.205218
 8552 Fit      -0.209734
 8553 Fit      -0.215618
 8554 Fit      -0.221414
 8555 Fit      -0.225940
 8556 Fit      -0.227529
 8557 Fit      -0.224709
 8558 Fit      -0.218619
 8559 Fit      -0.211916
 8560 Fit      -0.206544
 8561 Fit      -0.203504
 8562 Fit      -0.205630
 8563 Fit      -0.209061
 8564 Fit      -0.214863
 8565 Fit      -0.217421
 8566 Fit      -0.213479
 8567 Fit      -0.207574
 8568 Fit      -0.210308
 8569 Fit      -0.145064
 8570 Fit      -0.150305
 8571 Fit      -0.143909
 8572 Fit      -0.139479
 8573 Fit      -0.145078
 8574 Fit      -0.139704
 8575 Fit      -0.135893
 8576 Fit      -0.133740
 8577 Fit      -0.148968
 8578 Fit      -0.142706
 8579 Fit      -0.137636
 8580 Fit      -0.133876
 8581 Fit      -0.131512
 8582 Fit      -0.146809
 8583 Fit      -0.141112
 8584 Fit      -0.136366
 8585 Fit      -0.132718
 8586 Fit      -0.130253
 8587 Fit      -0.143446
 8588 Fit      -0.138216
 8589 Fit      -0.133969
 8590 Fit      -0.130826
 8591 Fit      -0.128857
 8592 Fit      -0.141076
 8593 Fit      -0.136342
 8594 Fit      -0.132628
 8595 Fit      -0.130010
 8596 Fit      -0.146597
 8597 Fit      -0.141052
 8598 Fit      -0.136485
 8599 Fit      -0.132986
 8600 Fit      -0.130602
 8601 Fit      -0.144702
 8602 Fit      -0.139534
 8603 Fit      -0.135566
 8604 Fit      -0.132827
 8605 Fit      -0.144945
 8606 Fit      -0.140031
 8607 Fit      -0.145801
 8608 Fit      -0.177048
 8609 Fit      -0.168527
 8610 Fit      -0.178214
 8611 Fit      -0.190310
 8612 Fit      -0.161243
 8613 Fit      -0.169263
 8614 Fit      -0.179476
 8615 Fit      -0.191924
 8616 Fit      -0.156881
 8617 Fit      -0.163953
 8618 Fit      -0.172991
 8619 Fit      -0.184051
 8620 Fit      -0.150811
 8621 Fit      -0.156319
 8622 Fit      -0.163658
 8623 Fit      -0.172882
 8624 Fit      -0.183928
 8625 Fit      -0.151881
 8626 Fit      -0.158116
 8627 Fit      -0.166145
 8628 Fit      -0.175879
 8629 Fit      -0.186938
 8630 Fit      -0.148799
 8631 Fit      -0.153823
 8632 Fit      -0.160531
 8633 Fit      -0.168802
 8634 Fit      -0.178302
 8635 Fit      -0.153600
 8636 Fit      -0.160214
 8637 Fit      -0.168292
 8638 Fit      -0.177274
 8639 Fit      -0.154043
 8640 Fit      -0.160398
 8641 Fit      -0.168039
 8642 Fit      -0.176190
 8643 Fit      -0.156659
 8644 Fit      -0.163289
 8645 Fit      -0.170724
 8646 Fit      -0.162064
 8647 Fit      -0.187824
 8648 Fit      -0.178085
 8649 Fit      -0.172436
 8650 Fit      -0.196321
 8651 Fit      -0.186243
 8652 Fit      -0.176033
 8653 Fit      -0.168516
 8654 Fit      -0.165148
 8655 Fit      -0.206900
 8656 Fit      -0.196316
 8657 Fit      -0.185083
 8658 Fit      -0.174939
 8659 Fit      -0.166966
 8660 Fit      -0.161658
 8661 Fit      -0.159170
 8662 Fit      -0.159550
 8663 Fit      -0.225022
 8664 Fit      -0.214114
 8665 Fit      -0.201640
 8666 Fit      -0.189221
 8667 Fit      -0.178071
 8668 Fit      -0.168881
 8669 Fit      -0.161918
 8670 Fit      -0.157202
 8671 Fit      -0.154652
 8672 Fit      -0.154203
 8673 Fit      -0.228851
 8674 Fit      -0.214361
 8675 Fit      -0.199903
 8676 Fit      -0.186712
 8677 Fit      -0.175475
 8678 Fit      -0.166434
 8679 Fit      -0.159565
 8680 Fit      -0.154726
 8681 Fit      -0.151742
 8682 Fit      -0.150455
 8683 Fit      -0.150784
 8684 Fit      -0.229880
 8685 Fit      -0.213138
 8686 Fit      -0.197784
 8687 Fit      -0.184530
 8688 Fit      -0.173586
 8689 Fit      -0.164878
 8690 Fit      -0.158219
 8691 Fit      -0.153384
 8692 Fit      -0.150155
 8693 Fit      -0.148328
 8694 Fit      -0.147721
 8695 Fit      -0.226013
 8696 Fit      -0.207598
 8697 Fit      -0.191958
 8698 Fit      -0.179164
 8699 Fit      -0.168987
 8700 Fit      -0.161110
 8701 Fit      -0.155222
 8702 Fit      -0.151038
 8703 Fit      -0.148301
 8704 Fit      -0.146756
 8705 Fit      -0.240350
 8706 Fit      -0.218689
 8707 Fit      -0.200644
 8708 Fit      -0.186050
 8709 Fit      -0.174473
 8710 Fit      -0.165454
 8711 Fit      -0.158591
 8712 Fit      -0.153543
 8713 Fit      -0.150020
 8714 Fit      -0.147757
 8715 Fit      -0.146458
 8716 Fit      -0.239679
 8717 Fit      -0.217208
 8718 Fit      -0.199176
 8719 Fit      -0.184926
 8720 Fit      -0.173794
 8721 Fit      -0.165220
 8722 Fit      -0.158764
 8723 Fit      -0.154071
 8724 Fit      -0.150851
 8725 Fit      -0.148832
 8726 Fit      -0.230719
 8727 Fit      -0.209376
 8728 Fit      -0.192747
 8729 Fit      -0.179907
 8730 Fit      -0.170109
 8731 Fit      -0.162780
 8732 Fit      -0.157488
 8733 Fit      -0.153893
 8734 Fit      -0.151708
 8735 Fit      -0.228059
 8736 Fit      -0.207202
 8737 Fit      -0.191148
 8738 Fit      -0.178947
 8739 Fit      -0.169844
 8740 Fit      -0.163270
 8741 Fit      -0.158801
 8742 Fit      -0.156116
 8743 Fit      -0.222927
 8744 Fit      -0.204081
 8745 Fit      -0.189533
 8746 Fit      -0.178573
 8747 Fit      -0.170590
 8748 Fit      -0.165109
 8749 Fit      -0.161784
 8750 Fit      -0.212348
 8751 Fit      -0.196426
 8752 Fit      -0.184405
 8753 Fit      -0.175816
 8754 Fit      -0.218297
 8755 Fit      -0.206937
 8756 Fit      -0.199646
 8757 Fit      -0.212718
 8758 Fit      -0.198015
 8759 Fit      -0.211377
 8760 Fit      -0.199858
 8761 Fit      -0.214109
 8762 Fit      -0.191399
 8763 Fit      -0.202534
 8764 Fit      -0.216990
 8765 Fit      -0.189098
 8766 Fit      -0.199047
 8767 Fit      -0.212134
 8768 Fit      -0.188375
 8769 Fit      -0.196795
 8770 Fit      -0.208213
 8771 Fit      -0.197767
 8772 Fit      -0.208365
 8773 Fit      -0.220457
 8774 Fit      -0.201613
 8775 Fit      -0.211847
 8776 Fit      -0.220082
 8777 Fit      -0.206091
 -----------------------------------------------------------------
 Leave Link  602 at Wed Jun 22 10:41:19 2016, MaxMem=   33554432 cpu:       3.1

 Test job not archived.
 1\1\GINC-NODE35\FOpt\RHF\6-31G(d)\C9H5Br1O5(2-)\DAVE\22-Jun-2016\0\\#H
 F/6-31G* SCF=tight Test Pop=MK iop(6/33=2) iop(6/42=6) opt\\remark lin
 e goes here\\-2,1\C,3.1754663778,-2.0204666517,6.9245716491\C,5.007784
 5386,-0.8089153614,7.9129784048\C,2.3236074132,-0.9975698613,7.3032469
 247\C,4.1539958178,0.2047819239,8.2873799282\C,4.5451962047,-1.9406826
 398,7.2193581627\C,2.8093958413,0.1075779733,7.9736253384\C,4.19106620
 78,-4.9492257486,6.7215205136\C,6.4629443209,-4.5302900093,5.453211406
 1\C,5.1345300425,-3.9303246776,6.0054597793\O,4.5842320132,-5.38431319
 33,7.8017576631\O,6.2680735221,-5.4475261836,4.6487545369\O,3.11239172
 11,-5.1603824967,6.1439047437\O,7.5228699507,-4.0160300416,5.807340292
 \O,5.4471529375,-2.8258293087,6.8892952216\Br,1.6102890592,1.525431547
 4,8.4864179279\H,4.6045854332,-3.5142486383,5.1555830788\H,4.528541725
 4,1.0643523636,8.8134056821\H,1.2754438028,-1.0731161356,7.0779343032\
 H,6.0571403648,-0.7584363812,8.1378349152\H,2.7862927055,-2.8967864796
 ,6.4414195284\\Version=EM64L-G09RevC.01\State=1-A\HF=-3287.875265\RMSD
 =5.572e-09\RMSF=2.234e-05\Dipole=-4.4122505,8.9290325,2.8586705\Quadru
 pole=5.0698401,-31.530075,26.460235,33.6218018,19.8373623,-24.5709502\
 PG=C01 [X(C9H5Br1O5)]\\@


 I DON'T PRETEND TO UNDERSTAND THE UNIVERSE --
 IT'S A GREAT DEAL BIGGER THAN I AM.
       -- ATTR. TO WILLIAM ALLINGHAM (1828-89)
 Job cpu time:  0 days  0 hours 35 minutes 45.9 seconds.
 File lengths (MBytes):  RWF=     51 Int=      0 D2E=      0 Chk=      6 Scr=      1
 Normal termination of Gaussian 09 at Wed Jun 22 10:41:20 2016.
