 Entering Gaussian System, Link 0=/usr/local/g09_c01/g09
 Initial command:
 /usr/local/g09_c01/l1.exe /scr/gf/dave/80787/Gau-9872.inp -scrdir=/scr/gf/dave/80787/
 Entering Link 1 = /usr/local/g09_c01/l1.exe PID=      9874.
  
 Copyright (c) 1988,1990,1992,1993,1995,1998,2003,2009,2011,
            Gaussian, Inc.  All Rights Reserved.
  
 This is part of the Gaussian(R) 09 program.  It is based on
 the Gaussian(R) 03 system (copyright 2003, Gaussian, Inc.),
 the Gaussian(R) 98 system (copyright 1998, Gaussian, Inc.),
 the Gaussian(R) 94 system (copyright 1995, Gaussian, Inc.),
 the Gaussian 92(TM) system (copyright 1992, Gaussian, Inc.),
 the Gaussian 90(TM) system (copyright 1990, Gaussian, Inc.),
 the Gaussian 88(TM) system (copyright 1988, Gaussian, Inc.),
 the Gaussian 86(TM) system (copyright 1986, Carnegie Mellon
 University), and the Gaussian 82(TM) system (copyright 1983,
 Carnegie Mellon University). Gaussian is a federally registered
 trademark of Gaussian, Inc.
  
 This software contains proprietary and confidential information,
 including trade secrets, belonging to Gaussian, Inc.
  
 This software is provided under written license and may be
 used, copied, transmitted, or stored only in accord with that
 written license.
  
 The following legend is applicable only to US Government
 contracts under FAR:
  
                    RESTRICTED RIGHTS LEGEND
  
 Use, reproduction and disclosure by the US Government is
 subject to restrictions as set forth in subparagraphs (a)
 and (c) of the Commercial Computer Software - Restricted
 Rights clause in FAR 52.227-19.
  
 Gaussian, Inc.
 340 Quinnipiac St., Bldg. 40, Wallingford CT 06492
  
  
 ---------------------------------------------------------------
 Warning -- This program may not be used in any manner that
 competes with the business of Gaussian, Inc. or will provide
 assistance to any competitor of Gaussian, Inc.  The licensee
 of this program is prohibited from giving any competitor of
 Gaussian, Inc. access to this program.  By using this program,
 the user acknowledges that Gaussian, Inc. is engaged in the
 business of creating and licensing software in the field of
 computational chemistry and represents and warrants to the
 licensee that it is not a competitor of Gaussian, Inc. and that
 it will not use this program in any manner prohibited above.
 ---------------------------------------------------------------
  

 Cite this work as:
 Gaussian 09, Revision C.01,
 M. J. Frisch, G. W. Trucks, H. B. Schlegel, G. E. Scuseria, 
 M. A. Robb, J. R. Cheeseman, G. Scalmani, V. Barone, B. Mennucci, 
 G. A. Petersson, H. Nakatsuji, M. Caricato, X. Li, H. P. Hratchian, 
 A. F. Izmaylov, J. Bloino, G. Zheng, J. L. Sonnenberg, M. Hada, 
 M. Ehara, K. Toyota, R. Fukuda, J. Hasegawa, M. Ishida, T. Nakajima, 
 Y. Honda, O. Kitao, H. Nakai, T. Vreven, J. A. Montgomery, Jr., 
 J. E. Peralta, F. Ogliaro, M. Bearpark, J. J. Heyd, E. Brothers, 
 K. N. Kudin, V. N. Staroverov, T. Keith, R. Kobayashi, J. Normand, 
 K. Raghavachari, A. Rendell, J. C. Burant, S. S. Iyengar, J. Tomasi, 
 M. Cossi, N. Rega, J. M. Millam, M. Klene, J. E. Knox, J. B. Cross, 
 V. Bakken, C. Adamo, J. Jaramillo, R. Gomperts, R. E. Stratmann, 
 O. Yazyev, A. J. Austin, R. Cammi, C. Pomelli, J. W. Ochterski, 
 R. L. Martin, K. Morokuma, V. G. Zakrzewski, G. A. Voth, 
 P. Salvador, J. J. Dannenberg, S. Dapprich, A. D. Daniels, 
 O. Farkas, J. B. Foresman, J. V. Ortiz, J. Cioslowski, 
 and D. J. Fox, Gaussian, Inc., Wallingford CT, 2010.
 
 ******************************************
 Gaussian 09:  EM64L-G09RevC.01 23-Sep-2011
                16-Jun-2016 
 ******************************************
 %chk=molecule
 ------------------------------------------------------------
 #HF/6-31G* SCF=tight Test Pop=MK iop(6/33=2) iop(6/42=6) opt
 ------------------------------------------------------------
 1/18=20,19=15,38=1/1,3;
 2/9=110,12=2,17=6,18=5,40=1/2;
 3/5=1,6=6,7=1,11=9,16=1,25=1,30=1,71=1/1,2,3;
 4//1;
 5/5=2,32=2,38=5/2;
 6/7=2,8=2,9=2,10=2,15=8,20=1,28=1,33=2,42=6/1,2;
 7//1,2,3,16;
 1/18=20,19=15/3(2);
 2/9=110/2;
 99//99;
 2/9=110/2;
 3/5=1,6=6,7=1,11=9,16=1,25=1,30=1,71=1/1,2,3;
 4/5=5,16=3/1;
 5/5=2,32=2,38=5/2;
 7//1,2,3,16;
 1/18=20,19=15/3(-5);
 2/9=110/2;
 6/7=2,8=2,9=2,10=2,15=8,19=2,20=1,28=1,33=2,42=6/1,2;
 99/9=1/99;
 ---------------------
 remark line goes here
 ---------------------
 Charge =  0 Multiplicity = 1
 Symbolic Z-Matrix:
 C                     0.977     6.754     12.902 
 C                    -0.371     6.778     13.593 
 O                    -0.84      5.801     14.181 
 N                    -1.043     7.971     13.502 
 C                    -2.452     8.172     13.643 
 C                    -3.18      8.91      12.701 
 C                    -4.543     9.097     12.854 
 C                    -5.219     8.553     13.937 
 C                    -4.474     7.819     14.864 
 C                    -3.105     7.629     14.725 
 S                    -5.507     7.232     16.142 
 C                    -6.87      8.026     15.343 
 N                    -6.585     8.653     14.23 
 C                    -8.262     7.984     15.903 
 H                    -8.597     6.939     15.974 
 H                    -8.268     8.44      16.904 
 H                    -2.555     7.057     15.464 
 H                    -5.089     9.675     12.117 
 H                    -2.671     9.338     11.845 
 H                    -0.49      8.784     13.318 
 H                     0.843     6.963     11.83 
 H                     1.629     7.52      13.346 
 H                     1.436     5.763     13.029 
 H                    -8.941     8.543     15.242 
 

 GradGradGradGradGradGradGradGradGradGradGradGradGradGradGradGradGradGrad
 Berny optimization.
 Initialization pass.
                           ----------------------------
                           !    Initial Parameters    !
                           ! (Angstroms and Degrees)  !
 --------------------------                            --------------------------
 ! Name  Definition              Value          Derivative Info.                !
 --------------------------------------------------------------------------------
 ! R1    R(1,2)                  1.515          estimate D2E/DX2                !
 ! R2    R(1,21)                 1.1004         estimate D2E/DX2                !
 ! R3    R(1,22)                 1.0995         estimate D2E/DX2                !
 ! R4    R(1,23)                 1.0995         estimate D2E/DX2                !
 ! R5    R(2,3)                  1.233          estimate D2E/DX2                !
 ! R6    R(2,4)                  1.3723         estimate D2E/DX2                !
 ! R7    R(4,5)                  1.4302         estimate D2E/DX2                !
 ! R8    R(4,20)                 1.0003         estimate D2E/DX2                !
 ! R9    R(5,6)                  1.4007         estimate D2E/DX2                !
 ! R10   R(5,10)                 1.3755         estimate D2E/DX2                !
 ! R11   R(6,7)                  1.3842         estimate D2E/DX2                !
 ! R12   R(6,19)                 1.084          estimate D2E/DX2                !
 ! R13   R(7,8)                  1.3877         estimate D2E/DX2                !
 ! R14   R(7,18)                 1.0841         estimate D2E/DX2                !
 ! R15   R(8,9)                  1.3975         estimate D2E/DX2                !
 ! R16   R(8,13)                 1.4006         estimate D2E/DX2                !
 ! R17   R(9,10)                 1.3891         estimate D2E/DX2                !
 ! R18   R(9,11)                 1.745          estimate D2E/DX2                !
 ! R19   R(10,17)                1.0843         estimate D2E/DX2                !
 ! R20   R(11,12)                1.7682         estimate D2E/DX2                !
 ! R21   R(12,13)                1.3089         estimate D2E/DX2                !
 ! R22   R(12,14)                1.501          estimate D2E/DX2                !
 ! R23   R(14,15)                1.0997         estimate D2E/DX2                !
 ! R24   R(14,16)                1.1            estimate D2E/DX2                !
 ! R25   R(14,24)                1.1002         estimate D2E/DX2                !
 ! A1    A(2,1,21)             109.4502         estimate D2E/DX2                !
 ! A2    A(2,1,22)             109.4145         estimate D2E/DX2                !
 ! A3    A(2,1,23)             109.4538         estimate D2E/DX2                !
 ! A4    A(21,1,22)            109.4682         estimate D2E/DX2                !
 ! A5    A(21,1,23)            109.5458         estimate D2E/DX2                !
 ! A6    A(22,1,23)            109.4948         estimate D2E/DX2                !
 ! A7    A(1,2,3)              122.9167         estimate D2E/DX2                !
 ! A8    A(1,2,4)              114.7874         estimate D2E/DX2                !
 ! A9    A(3,2,4)              122.2916         estimate D2E/DX2                !
 ! A10   A(2,4,5)              126.7319         estimate D2E/DX2                !
 ! A11   A(2,4,20)             116.6186         estimate D2E/DX2                !
 ! A12   A(5,4,20)             116.6495         estimate D2E/DX2                !
 ! A13   A(4,5,6)              121.3165         estimate D2E/DX2                !
 ! A14   A(4,5,10)             119.3249         estimate D2E/DX2                !
 ! A15   A(6,5,10)             119.3585         estimate D2E/DX2                !
 ! A16   A(5,6,7)              120.5707         estimate D2E/DX2                !
 ! A17   A(5,6,19)             119.6736         estimate D2E/DX2                !
 ! A18   A(7,6,19)             119.7557         estimate D2E/DX2                !
 ! A19   A(6,7,8)              120.8605         estimate D2E/DX2                !
 ! A20   A(6,7,18)             119.5232         estimate D2E/DX2                !
 ! A21   A(8,7,18)             119.6162         estimate D2E/DX2                !
 ! A22   A(7,8,9)              117.6366         estimate D2E/DX2                !
 ! A23   A(7,8,13)             127.6143         estimate D2E/DX2                !
 ! A24   A(9,8,13)             114.7485         estimate D2E/DX2                !
 ! A25   A(8,9,10)             122.0618         estimate D2E/DX2                !
 ! A26   A(8,9,11)             110.2979         estimate D2E/DX2                !
 ! A27   A(10,9,11)            127.6399         estimate D2E/DX2                !
 ! A28   A(5,10,9)             119.5109         estimate D2E/DX2                !
 ! A29   A(5,10,17)            120.2349         estimate D2E/DX2                !
 ! A30   A(9,10,17)            120.2542         estimate D2E/DX2                !
 ! A31   A(9,11,12)             88.5288         estimate D2E/DX2                !
 ! A32   A(11,12,13)           115.5634         estimate D2E/DX2                !
 ! A33   A(11,12,14)           122.256          estimate D2E/DX2                !
 ! A34   A(13,12,14)           122.1806         estimate D2E/DX2                !
 ! A35   A(8,13,12)            110.8575         estimate D2E/DX2                !
 ! A36   A(12,14,15)           109.4624         estimate D2E/DX2                !
 ! A37   A(12,14,16)           109.449          estimate D2E/DX2                !
 ! A38   A(12,14,24)           109.5102         estimate D2E/DX2                !
 ! A39   A(15,14,16)           109.4827         estimate D2E/DX2                !
 ! A40   A(15,14,24)           109.4879         estimate D2E/DX2                !
 ! A41   A(16,14,24)           109.4351         estimate D2E/DX2                !
 ! D1    D(21,1,2,3)           119.3377         estimate D2E/DX2                !
 ! D2    D(21,1,2,4)           -59.9275         estimate D2E/DX2                !
 ! D3    D(22,1,2,3)          -120.7135         estimate D2E/DX2                !
 ! D4    D(22,1,2,4)            60.0213         estimate D2E/DX2                !
 ! D5    D(23,1,2,3)            -0.73           estimate D2E/DX2                !
 ! D6    D(23,1,2,4)          -179.9952         estimate D2E/DX2                !
 ! D7    D(1,2,4,5)            157.6656         estimate D2E/DX2                !
 ! D8    D(1,2,4,20)           -22.3333         estimate D2E/DX2                !
 ! D9    D(3,2,4,5)            -21.6047         estimate D2E/DX2                !
 ! D10   D(3,2,4,20)           158.3964         estimate D2E/DX2                !
 ! D11   D(2,4,5,6)           -130.6805         estimate D2E/DX2                !
 ! D12   D(2,4,5,10)            49.2844         estimate D2E/DX2                !
 ! D13   D(20,4,5,6)            49.3184         estimate D2E/DX2                !
 ! D14   D(20,4,5,10)         -130.7167         estimate D2E/DX2                !
 ! D15   D(4,5,6,7)           -179.882          estimate D2E/DX2                !
 ! D16   D(4,5,6,19)             0.1244         estimate D2E/DX2                !
 ! D17   D(10,5,6,7)             0.1531         estimate D2E/DX2                !
 ! D18   D(10,5,6,19)         -179.8405         estimate D2E/DX2                !
 ! D19   D(4,5,10,9)          -179.8401         estimate D2E/DX2                !
 ! D20   D(4,5,10,17)            0.1694         estimate D2E/DX2                !
 ! D21   D(6,5,10,9)             0.1255         estimate D2E/DX2                !
 ! D22   D(6,5,10,17)         -179.865          estimate D2E/DX2                !
 ! D23   D(5,6,7,8)             -0.3608         estimate D2E/DX2                !
 ! D24   D(5,6,7,18)           179.7214         estimate D2E/DX2                !
 ! D25   D(19,6,7,8)           179.6328         estimate D2E/DX2                !
 ! D26   D(19,6,7,18)           -0.285          estimate D2E/DX2                !
 ! D27   D(6,7,8,9)              0.2765         estimate D2E/DX2                !
 ! D28   D(6,7,8,13)           179.9617         estimate D2E/DX2                !
 ! D29   D(18,7,8,9)          -179.8057         estimate D2E/DX2                !
 ! D30   D(18,7,8,13)           -0.1205         estimate D2E/DX2                !
 ! D31   D(7,8,9,10)             0.006          estimate D2E/DX2                !
 ! D32   D(7,8,9,11)           179.7883         estimate D2E/DX2                !
 ! D33   D(13,8,9,10)         -179.7195         estimate D2E/DX2                !
 ! D34   D(13,8,9,11)            0.0628         estimate D2E/DX2                !
 ! D35   D(7,8,13,12)         -179.3112         estimate D2E/DX2                !
 ! D36   D(9,8,13,12)            0.3818         estimate D2E/DX2                !
 ! D37   D(8,9,10,5)            -0.2071         estimate D2E/DX2                !
 ! D38   D(8,9,10,17)          179.7835         estimate D2E/DX2                !
 ! D39   D(11,9,10,5)         -179.9493         estimate D2E/DX2                !
 ! D40   D(11,9,10,17)           0.0413         estimate D2E/DX2                !
 ! D41   D(8,9,11,12)           -0.3427         estimate D2E/DX2                !
 ! D42   D(10,9,11,12)         179.4244         estimate D2E/DX2                !
 ! D43   D(9,11,12,13)           0.6003         estimate D2E/DX2                !
 ! D44   D(9,11,12,14)        -179.4162         estimate D2E/DX2                !
 ! D45   D(11,12,13,8)          -0.6639         estimate D2E/DX2                !
 ! D46   D(14,12,13,8)         179.3527         estimate D2E/DX2                !
 ! D47   D(11,12,14,15)        -59.9823         estimate D2E/DX2                !
 ! D48   D(11,12,14,16)         60.0127         estimate D2E/DX2                !
 ! D49   D(11,12,14,24)        179.9787         estimate D2E/DX2                !
 ! D50   D(13,12,14,15)        120.0            estimate D2E/DX2                !
 ! D51   D(13,12,14,16)       -120.0049         estimate D2E/DX2                !
 ! D52   D(13,12,14,24)         -0.0389         estimate D2E/DX2                !
 --------------------------------------------------------------------------------
 Trust Radius=3.00D-01 FncErr=1.00D-07 GrdErr=1.00D-07
 Number of steps in this run=    128 maximum allowed number of steps=    144.
 GradGradGradGradGradGradGradGradGradGradGradGradGradGradGradGradGradGrad

                          Input orientation:                          
 ---------------------------------------------------------------------
 Center     Atomic      Atomic             Coordinates (Angstroms)
 Number     Number       Type             X           Y           Z
 ---------------------------------------------------------------------
      1          6           0        0.977000    6.754000   12.902000
      2          6           0       -0.371000    6.778000   13.593000
      3          8           0       -0.840000    5.801000   14.181000
      4          7           0       -1.043000    7.971000   13.502000
      5          6           0       -2.452000    8.172000   13.643000
      6          6           0       -3.180000    8.910000   12.701000
      7          6           0       -4.543000    9.097000   12.854000
      8          6           0       -5.219000    8.553000   13.937000
      9          6           0       -4.474000    7.819000   14.864000
     10          6           0       -3.105000    7.629000   14.725000
     11         16           0       -5.507000    7.232000   16.142000
     12          6           0       -6.870000    8.026000   15.343000
     13          7           0       -6.585000    8.653000   14.230000
     14          6           0       -8.262000    7.984000   15.903000
     15          1           0       -8.597000    6.939000   15.974000
     16          1           0       -8.268000    8.440000   16.904000
     17          1           0       -2.555000    7.057000   15.464000
     18          1           0       -5.089000    9.675000   12.117000
     19          1           0       -2.671000    9.338000   11.845000
     20          1           0       -0.490000    8.784000   13.318000
     21          1           0        0.843000    6.963000   11.830000
     22          1           0        1.629000    7.520000   13.346000
     23          1           0        1.436000    5.763000   13.029000
     24          1           0       -8.941000    8.543000   15.242000
 ---------------------------------------------------------------------
                    Distance matrix (angstroms):
                    1          2          3          4          5
     1  C    0.000000
     2  C    1.514979   0.000000
     3  O    2.417755   1.232978   0.000000
     4  N    2.433411   1.372266   2.282794   0.000000
     5  C    3.783893   2.505254   2.917127   1.430232   0.000000
     6  C    4.687151   3.637522   4.163158   2.467811   1.400711
     7  C    5.996862   4.830059   5.131935   3.733334   2.418766
     8  C    6.534374   5.174173   5.177710   4.238741   2.808538
     9  C    5.890422   4.419698   4.212454   3.694578   2.388291
    10  C    4.555401   3.079023   2.961038   2.421681   1.375493
    11  S    7.264182   5.751697   5.260625   5.238608   4.057293
    12  C    8.315761   6.845218   6.531598   6.111157   4.736036
    13  N    7.909085   6.521901   6.414151   5.631063   4.202097
    14  C    9.791732   8.310139   7.925709   7.607820   6.236910
    15  H   10.056485   8.565171   8.042446   8.014906   6.686918
    16  H   10.214138   8.722819   8.339918   7.999637   6.673215
    17  H    4.373863   2.889349   2.482912   2.640262   2.137727
    18  H    6.778261   5.729809   6.109171   4.603472   3.397272
    19  H    4.593714   3.859936   4.617340   2.695315   2.154140
    20  H    2.538906   2.028256   3.124989   1.000317   2.080772
    21  H    1.100373   2.148532   3.116077   2.714525   3.950402
    22  H    1.099544   2.147457   3.122202   2.714281   4.143413
    23  H    1.099496   2.147922   2.551220   3.353272   4.614848
    24  H   10.346151   8.903894   8.618033   8.107601   6.693397
                    6          7          8          9         10
     6  C    0.000000
     7  C    1.384250   0.000000
     8  C    2.410947   1.387732   0.000000
     9  C    2.746504   2.382886   1.397537   0.000000
    10  C    2.396490   2.779120   2.437974   1.389094   0.000000
    11  S    4.480077   3.901085   2.586505   1.744976   2.816931
    12  C    4.623605   3.571707   2.231673   2.452164   3.835982
    13  N    3.741379   2.502054   1.400644   2.356657   3.661147
    14  C    6.077582   4.936206   3.667256   3.931373   5.301732
    15  H    6.628820   5.552142   4.262071   4.359545   5.674343
    16  H    6.616181   5.541640   4.255850   4.352204   5.662361
    17  H    3.385026   3.863398   3.415646   2.150164   1.084345
    18  H    2.137887   1.084144   2.142005   3.371790   3.863164
    19  H    1.083975   2.140221   3.388952   3.830474   3.376898
    20  H    2.762728   4.091464   4.774931   4.381050   3.186204
    21  H    4.553458   5.883156   6.611762   6.181293   4.940778
    22  H    5.047237   6.389255   6.950646   6.296057   4.931965
    23  H    5.596307   6.847965   7.273073   6.520925   5.194136
    24  H    6.307178   5.035063   3.944161   4.541052   5.929720
                   11         12         13         14         15
    11  S    0.000000
    12  C    1.768221   0.000000
    13  N    2.614779   1.308863   0.000000
    14  C    2.865772   1.501009   2.461467   0.000000
    15  H    3.108404   2.135945   3.166619   1.099678   0.000000
    16  H    3.108541   2.136006   3.166723   1.099988   1.796146
    17  H    3.033911   4.424119   4.506758   5.798439   6.064634
    18  H    4.726902   4.037108   2.783392   5.221226   5.887972
    19  H    5.562584   5.620405   4.634312   7.039884   7.610606
    20  H    5.962715   6.736437   6.164246   8.229593   8.728219
    21  H    7.680378   8.541751   7.986945  10.026604  10.309554
    22  H    7.669619   8.745116   8.338761  10.226702  10.574262
    23  H    7.749450   8.914337   8.609933  10.355864  10.522219
    24  H    3.784320   2.136944   2.566511   1.100201   1.796379
                   16         17         18         19         20
    16  H    0.000000
    17  H    6.051831   0.000000
    18  H    5.877639   4.947473   0.000000
    19  H    7.597782   4.279437   2.456477   0.000000
    20  H    8.571757   3.442684   4.836019   2.689499   0.000000
    21  H   10.532679   4.976062   6.528854   4.241350   2.703160
    22  H   10.557290   4.712340   7.161424   4.903889   2.467517
    23  H   10.786546   4.850953   7.662318   5.572246   3.594362
    24  H    1.796046   6.560372   5.087726   7.175272   8.670597
                   21         22         23         24
    21  H    0.000000
    22  H    1.796191   0.000000
    23  H    1.797011   1.795769   0.000000
    24  H   10.481641  10.787319  10.968496   0.000000
 Stoichiometry    C10H10N2OS
 Framework group  C1[X(C10H10N2OS)]
 Deg. of freedom    66
 Full point group                 C1      NOp   1
 Largest Abelian subgroup         C1      NOp   1
 Largest concise Abelian subgroup C1      NOp   1
                         Standard orientation:                         
 ---------------------------------------------------------------------
 Center     Atomic      Atomic             Coordinates (Angstroms)
 Number     Number       Type             X           Y           Z
 ---------------------------------------------------------------------
      1          6           0       -5.034941   -0.239360    0.171085
      2          6           0       -3.552856   -0.550893    0.131945
      3          8           0       -3.070841   -1.576979    0.616757
      4          7           0       -2.779302    0.407448   -0.473291
      5          6           0       -1.378455    0.622755   -0.281368
      6          6           0       -0.868152    1.899216   -0.012613
      7          6           0        0.490862    2.090414    0.168141
      8          6           0        1.375709    1.023888    0.094872
      9          6           0        0.845445   -0.241175   -0.172611
     10          6           0       -0.515493   -0.445341   -0.361679
     11         16           0        2.119509   -1.432242   -0.227925
     12          6           0        3.279946   -0.139805    0.103134
     13          7           0        2.767074    1.055055    0.252787
     14          6           0        4.755490   -0.395069    0.206276
     15          1           0        4.947819   -1.108882    1.020384
     16          1           0        5.122028   -0.813449   -0.742714
     17          1           0       -0.894911   -1.439298   -0.571192
     18          1           0        0.867930    3.086452    0.370862
     19          1           0       -1.543900    2.744131    0.054363
     20          1           0       -3.243390    1.018539   -1.115026
     21          1           0       -5.197912    0.697639    0.724524
     22          1           0       -5.412440   -0.128901   -0.855701
     23          1           0       -5.568514   -1.059954    0.671901
     24          1           0        5.278142    0.550124    0.415767
 ---------------------------------------------------------------------
 Rotational constants (GHZ):      1.7347232      0.3084597      0.2678632
 Standard basis: 6-31G(d) (6D, 7F)
 There are   234 symmetry adapted basis functions of A   symmetry.
 Integral buffers will be    131072 words long.
 Raffenetti 1 integral format.
 Two-electron integral symmetry is turned on.
   234 basis functions,   456 primitive gaussians,   234 cartesian basis functions
    54 alpha electrons       54 beta electrons
       nuclear repulsion energy       926.4959335909 Hartrees.
 NAtoms=   24 NActive=   24 NUniq=   24 SFac= 1.00D+00 NAtFMM=   60 NAOKFM=F Big=F
 One-electron integrals computed using PRISM.
 NBasis=   234 RedAO= T  NBF=   234
 NBsUse=   234 1.00D-06 NBFU=   234
 Harris functional with IExCor=  205 diagonalized for initial guess.
 ExpMin= 1.17D-01 ExpMax= 2.19D+04 ExpMxC= 3.30D+03 IAcc=1 IRadAn=         1 AccDes= 0.00D+00
 HarFok:  IExCor=  205 AccDes= 0.00D+00 IRadAn=         1 IDoV= 1
 ScaDFX=  1.000000  1.000000  1.000000  1.000000
 FoFCou: FMM=F IPFlag=           0 FMFlag=      100000 FMFlg1=           0
         NFxFlg=           0 DoJE=T BraDBF=F KetDBF=T FulRan=T
         Omega=  0.000000  0.000000  1.000000  0.000000  0.000000 ICntrl=     500 IOpCl=  0
         NMat0=    1 NMatS0=    1 NMatT0=    0 NMatD0=    1 NMtDS0=    0 NMtDT0=    0
         I1Cent=           4 NGrid=           0.
 Petite list used in FoFCou.
 Initial guess orbital symmetries:
       Occupied  (A) (A) (A) (A) (A) (A) (A) (A) (A) (A) (A) (A)
                 (A) (A) (A) (A) (A) (A) (A) (A) (A) (A) (A) (A)
                 (A) (A) (A) (A) (A) (A) (A) (A) (A) (A) (A) (A)
                 (A) (A) (A) (A) (A) (A) (A) (A) (A) (A) (A) (A)
                 (A) (A) (A) (A) (A) (A)
       Virtual   (A) (A) (A) (A) (A) (A) (A) (A) (A) (A) (A) (A)
                 (A) (A) (A) (A) (A) (A) (A) (A) (A) (A) (A) (A)
                 (A) (A) (A) (A) (A) (A) (A) (A) (A) (A) (A) (A)
                 (A) (A) (A) (A) (A) (A) (A) (A) (A) (A) (A) (A)
                 (A) (A) (A) (A) (A) (A) (A) (A) (A) (A) (A) (A)
                 (A) (A) (A) (A) (A) (A) (A) (A) (A) (A) (A) (A)
                 (A) (A) (A) (A) (A) (A) (A) (A) (A) (A) (A) (A)
                 (A) (A) (A) (A) (A) (A) (A) (A) (A) (A) (A) (A)
                 (A) (A) (A) (A) (A) (A) (A) (A) (A) (A) (A) (A)
                 (A) (A) (A) (A) (A) (A) (A) (A) (A) (A) (A) (A)
                 (A) (A) (A) (A) (A) (A) (A) (A) (A) (A) (A) (A)
                 (A) (A) (A) (A) (A) (A) (A) (A) (A) (A) (A) (A)
                 (A) (A) (A) (A) (A) (A) (A) (A) (A) (A) (A) (A)
                 (A) (A) (A) (A) (A) (A) (A) (A) (A) (A) (A) (A)
                 (A) (A) (A) (A) (A) (A) (A) (A) (A) (A) (A) (A)
 The electronic state of the initial guess is 1-A.
 Requested convergence on RMS density matrix=1.00D-08 within 128 cycles.
 Requested convergence on MAX density matrix=1.00D-06.
 Requested convergence on             energy=1.00D-06.
 No special actions if energy rises.
 Integral accuracy reduced to 1.0D-05 until final iterations.
 Initial convergence to 1.0D-05 achieved.  Increase integral accuracy.
 SCF Done:  E(RHF) =  -965.798078872     A.U. after   17 cycles
             Convg  =    0.5000D-08             -V/T =  2.0015

 **********************************************************************

            Population analysis using the SCF density.

 **********************************************************************

 Orbital symmetries:
 BldTbl:  Degeneracy threshold= 1.00D-02
       Occupied  (A) (A) (A) (A) (A) (A) (A) (A) (A) (A) (A) (A)
                 (A) (A) (A) (A) (A) (A) (A) (A) (A) (A) (A) (A)
                 (A) (A) (A) (A) (A) (A) (A) (A) (A) (A) (A) (A)
                 (A) (A) (A) (A) (A) (A) (A) (A) (A) (A) (A) (A)
                 (A) (A) (A) (A) (A) (A)
       Virtual   (A) (A) (A) (A) (A) (A) (A) (A) (A) (A) (A) (A)
                 (A) (A) (A) (A) (A) (A) (A) (A) (A) (A) (A) (A)
                 (A) (A) (A) (A) (A) (A) (A) (A) (A) (A) (A) (A)
                 (A) (A) (A) (A) (A) (A) (A) (A) (A) (A) (A) (A)
                 (A) (A) (A) (A) (A) (A) (A) (A) (A) (A) (A) (A)
                 (A) (A) (A) (A) (A) (A) (A) (A) (A) (A) (A) (A)
                 (A) (A) (A) (A) (A) (A) (A) (A) (A) (A) (A) (A)
                 (A) (A) (A) (A) (A) (A) (A) (A) (A) (A) (A) (A)
                 (A) (A) (A) (A) (A) (A) (A) (A) (A) (A) (A) (A)
                 (A) (A) (A) (A) (A) (A) (A) (A) (A) (A) (A) (A)
                 (A) (A) (A) (A) (A) (A) (A) (A) (A) (A) (A) (A)
                 (A) (A) (A) (A) (A) (A) (A) (A) (A) (A) (A) (A)
                 (A) (A) (A) (A) (A) (A) (A) (A) (A) (A) (A) (A)
                 (A) (A) (A) (A) (A) (A) (A) (A) (A) (A) (A) (A)
                 (A) (A) (A) (A) (A) (A) (A) (A) (A) (A) (A) (A)
 The electronic state is 1-A.
 Alpha  occ. eigenvalues --  -91.97562 -20.53187 -15.59952 -15.57245 -11.36351
 Alpha  occ. eigenvalues --  -11.32470 -11.28525 -11.27019 -11.26868 -11.24777
 Alpha  occ. eigenvalues --  -11.24745 -11.24423 -11.24186 -11.24032  -8.98615
 Alpha  occ. eigenvalues --   -6.66863  -6.66773  -6.66591  -1.37647  -1.27621
 Alpha  occ. eigenvalues --   -1.24618  -1.14412  -1.06870  -1.04246  -1.01594
 Alpha  occ. eigenvalues --   -0.98723  -0.95329  -0.84672  -0.82200  -0.78549
 Alpha  occ. eigenvalues --   -0.75896  -0.71091  -0.67782  -0.66285  -0.65621
 Alpha  occ. eigenvalues --   -0.62148  -0.60671  -0.60378  -0.59884  -0.57717
 Alpha  occ. eigenvalues --   -0.57299  -0.55865  -0.55335  -0.54831  -0.53361
 Alpha  occ. eigenvalues --   -0.51643  -0.47860  -0.46799  -0.42650  -0.42049
 Alpha  occ. eigenvalues --   -0.41205  -0.40553  -0.31819  -0.30529
 Alpha virt. eigenvalues --    0.10875   0.13490   0.16107   0.17955   0.19666
 Alpha virt. eigenvalues --    0.22010   0.24880   0.25547   0.26103   0.27376
 Alpha virt. eigenvalues --    0.29846   0.31084   0.31359   0.31724   0.31995
 Alpha virt. eigenvalues --    0.33810   0.36541   0.36971   0.38961   0.40355
 Alpha virt. eigenvalues --    0.42413   0.43778   0.47237   0.49719   0.49832
 Alpha virt. eigenvalues --    0.50614   0.53785   0.55501   0.56690   0.59022
 Alpha virt. eigenvalues --    0.62131   0.65023   0.69386   0.71809   0.73435
 Alpha virt. eigenvalues --    0.74564   0.75469   0.75940   0.76475   0.77040
 Alpha virt. eigenvalues --    0.78991   0.79379   0.80772   0.82197   0.82570
 Alpha virt. eigenvalues --    0.83153   0.84974   0.86389   0.88232   0.89562
 Alpha virt. eigenvalues --    0.90428   0.92699   0.94027   0.94854   0.94929
 Alpha virt. eigenvalues --    0.97859   1.00344   1.03982   1.04907   1.05295
 Alpha virt. eigenvalues --    1.06467   1.07922   1.09612   1.10064   1.10736
 Alpha virt. eigenvalues --    1.11874   1.11966   1.12669   1.13032   1.13996
 Alpha virt. eigenvalues --    1.14735   1.16611   1.18550   1.19046   1.19540
 Alpha virt. eigenvalues --    1.20005   1.21219   1.21659   1.22299   1.24089
 Alpha virt. eigenvalues --    1.26568   1.27496   1.30853   1.34076   1.34878
 Alpha virt. eigenvalues --    1.36384   1.37681   1.41855   1.44724   1.46476
 Alpha virt. eigenvalues --    1.47617   1.52286   1.55988   1.59788   1.60560
 Alpha virt. eigenvalues --    1.63189   1.63594   1.66481   1.67443   1.69675
 Alpha virt. eigenvalues --    1.72262   1.73966   1.75991   1.77323   1.83883
 Alpha virt. eigenvalues --    1.85003   1.87468   1.92708   1.93281   1.94182
 Alpha virt. eigenvalues --    2.02624   2.05423   2.08107   2.10789   2.11510
 Alpha virt. eigenvalues --    2.12114   2.14078   2.15282   2.17176   2.18244
 Alpha virt. eigenvalues --    2.20798   2.23040   2.25114   2.27589   2.30658
 Alpha virt. eigenvalues --    2.33959   2.35165   2.36643   2.40499   2.44366
 Alpha virt. eigenvalues --    2.45252   2.46449   2.47899   2.49807   2.50651
 Alpha virt. eigenvalues --    2.53187   2.56758   2.59094   2.60972   2.63020
 Alpha virt. eigenvalues --    2.63515   2.65916   2.69247   2.73947   2.76545
 Alpha virt. eigenvalues --    2.77509   2.80462   2.84471   2.85096   2.92299
 Alpha virt. eigenvalues --    2.96498   2.98656   3.01365   3.02438   3.05205
 Alpha virt. eigenvalues --    3.06609   3.14267   3.16130   3.20721   3.27241
 Alpha virt. eigenvalues --    3.32939   3.35408   3.38081   3.51620   3.60225
 Alpha virt. eigenvalues --    3.82210   4.36201   4.39441   4.48439   4.48934
 Alpha virt. eigenvalues --    4.52309   4.54929   4.59219   4.60111   4.63827
 Alpha virt. eigenvalues --    4.74194   4.80424   4.85403   4.89706   5.17919
          Condensed to atoms (all electrons):
              1          2          3          4          5          6
     1  C    5.265452   0.367453  -0.065865  -0.122008   0.003169  -0.000108
     2  C    0.367453   4.191156   0.600591   0.237882  -0.020671   0.001406
     3  O   -0.065865   0.600591   8.155680  -0.101331   0.002336   0.000189
     4  N   -0.122008   0.237882  -0.101331   7.428169   0.201110  -0.049135
     5  C    0.003169  -0.020671   0.002336   0.201110   4.538915   0.558513
     6  C   -0.000108   0.001406   0.000189  -0.049135   0.558513   4.950377
     7  C   -0.000001  -0.000020  -0.000010   0.003701  -0.043760   0.543481
     8  C    0.000000   0.000009   0.000007   0.000221  -0.024520  -0.040497
     9  C    0.000004   0.000066   0.000160   0.003526  -0.043088  -0.037419
    10  C    0.000175  -0.001683  -0.004201  -0.053433   0.600383  -0.049502
    11  S    0.000000  -0.000001  -0.000013  -0.000089   0.001767   0.000229
    12  C    0.000000   0.000000   0.000000   0.000000  -0.000081  -0.000010
    13  N    0.000000   0.000000   0.000000  -0.000001  -0.000341   0.002877
    14  C    0.000000   0.000000   0.000000   0.000000   0.000000   0.000002
    15  H    0.000000   0.000000   0.000000   0.000000   0.000000   0.000000
    16  H    0.000000   0.000000   0.000000   0.000000   0.000000   0.000000
    17  H    0.000101   0.001511   0.007348  -0.005262  -0.015021   0.002864
    18  H    0.000000   0.000000   0.000000  -0.000086   0.001905  -0.029675
    19  H   -0.000011   0.000075   0.000001  -0.000075  -0.034305   0.376837
    20  H    0.000880  -0.021229   0.002280   0.323454  -0.021464  -0.001450
    21  H    0.374733  -0.031766   0.001025   0.002275  -0.000373   0.000041
    22  H    0.372268  -0.033850   0.001143   0.002870   0.000014  -0.000009
    23  H    0.382922  -0.033042   0.003565   0.004283  -0.000041   0.000001
    24  H    0.000000   0.000000   0.000000   0.000000   0.000000   0.000000
              7          8          9         10         11         12
     1  C   -0.000001   0.000000   0.000004   0.000175   0.000000   0.000000
     2  C   -0.000020   0.000009   0.000066  -0.001683  -0.000001   0.000000
     3  O   -0.000010   0.000007   0.000160  -0.004201  -0.000013   0.000000
     4  N    0.003701   0.000221   0.003526  -0.053433  -0.000089   0.000000
     5  C   -0.043760  -0.024520  -0.043088   0.600383   0.001767  -0.000081
     6  C    0.543481  -0.040497  -0.037419  -0.049502   0.000229  -0.000010
     7  C    4.920949   0.565921  -0.060207  -0.036665   0.004724   0.003551
     8  C    0.565921   4.521205   0.512737  -0.015101  -0.068794  -0.101833
     9  C   -0.060207   0.512737   5.276784   0.477196   0.273363  -0.046825
    10  C   -0.036665  -0.015101   0.477196   4.928819  -0.043072   0.002504
    11  S    0.004724  -0.068794   0.273363  -0.043072  15.370708   0.297885
    12  C    0.003551  -0.101833  -0.046825   0.002504   0.297885   5.005584
    13  N   -0.043852   0.392647  -0.092534   0.006679  -0.078552   0.541890
    14  C   -0.000071   0.004396   0.002496  -0.000007  -0.051263   0.318815
    15  H    0.000002  -0.000125   0.000028  -0.000001   0.000772  -0.040633
    16  H    0.000003  -0.000117   0.000025  -0.000001   0.000766  -0.040641
    17  H    0.000115   0.001038  -0.030594   0.370893  -0.000725  -0.000005
    18  H    0.371454  -0.025785   0.004796  -0.000065  -0.000103  -0.000040
    19  H   -0.023321   0.001420   0.000257   0.003112   0.000013   0.000003
    20  H    0.000011   0.000000  -0.000045   0.002108   0.000003   0.000000
    21  H    0.000000   0.000000   0.000000  -0.000004   0.000000   0.000000
    22  H    0.000000   0.000000   0.000000  -0.000005   0.000000   0.000000
    23  H    0.000000   0.000000   0.000000  -0.000004   0.000000   0.000000
    24  H   -0.000013   0.000266  -0.000047   0.000000   0.002814  -0.039331
             13         14         15         16         17         18
     1  C    0.000000   0.000000   0.000000   0.000000   0.000101   0.000000
     2  C    0.000000   0.000000   0.000000   0.000000   0.001511   0.000000
     3  O    0.000000   0.000000   0.000000   0.000000   0.007348   0.000000
     4  N   -0.000001   0.000000   0.000000   0.000000  -0.005262  -0.000086
     5  C   -0.000341   0.000000   0.000000   0.000000  -0.015021   0.001905
     6  C    0.002877   0.000002   0.000000   0.000000   0.002864  -0.029675
     7  C   -0.043852  -0.000071   0.000002   0.000003   0.000115   0.371454
     8  C    0.392647   0.004396  -0.000125  -0.000117   0.001038  -0.025785
     9  C   -0.092534   0.002496   0.000028   0.000025  -0.030594   0.004796
    10  C    0.006679  -0.000007  -0.000001  -0.000001   0.370893  -0.000065
    11  S   -0.078552  -0.051263   0.000772   0.000766  -0.000725  -0.000103
    12  C    0.541890   0.318815  -0.040633  -0.040641  -0.000005  -0.000040
    13  N    6.862129  -0.055397   0.000486   0.000473  -0.000060   0.000657
    14  C   -0.055397   5.143623   0.387248   0.387112   0.000000  -0.000006
    15  H    0.000486   0.387248   0.503010  -0.025832   0.000000   0.000000
    16  H    0.000473   0.387112  -0.025832   0.504665   0.000000   0.000000
    17  H   -0.000060   0.000000   0.000000   0.000000   0.409475   0.000008
    18  H    0.000657  -0.000006   0.000000   0.000000   0.000008   0.455215
    19  H   -0.000052   0.000000   0.000000   0.000000  -0.000101  -0.002103
    20  H    0.000000   0.000000   0.000000   0.000000  -0.000101  -0.000001
    21  H    0.000000   0.000000   0.000000   0.000000  -0.000001   0.000000
    22  H    0.000000   0.000000   0.000000   0.000000  -0.000011   0.000000
    23  H    0.000000   0.000000   0.000000   0.000000   0.000002   0.000000
    24  H    0.003704   0.390258  -0.019505  -0.019685   0.000000   0.000003
             19         20         21         22         23         24
     1  C   -0.000011   0.000880   0.374733   0.372268   0.382922   0.000000
     2  C    0.000075  -0.021229  -0.031766  -0.033850  -0.033042   0.000000
     3  O    0.000001   0.002280   0.001025   0.001143   0.003565   0.000000
     4  N   -0.000075   0.323454   0.002275   0.002870   0.004283   0.000000
     5  C   -0.034305  -0.021464  -0.000373   0.000014  -0.000041   0.000000
     6  C    0.376837  -0.001450   0.000041  -0.000009   0.000001   0.000000
     7  C   -0.023321   0.000011   0.000000   0.000000   0.000000  -0.000013
     8  C    0.001420   0.000000   0.000000   0.000000   0.000000   0.000266
     9  C    0.000257  -0.000045   0.000000   0.000000   0.000000  -0.000047
    10  C    0.003112   0.002108  -0.000004  -0.000005  -0.000004   0.000000
    11  S    0.000013   0.000003   0.000000   0.000000   0.000000   0.002814
    12  C    0.000003   0.000000   0.000000   0.000000   0.000000  -0.039331
    13  N   -0.000052   0.000000   0.000000   0.000000   0.000000   0.003704
    14  C    0.000000   0.000000   0.000000   0.000000   0.000000   0.390258
    15  H    0.000000   0.000000   0.000000   0.000000   0.000000  -0.019505
    16  H    0.000000   0.000000   0.000000   0.000000   0.000000  -0.019685
    17  H   -0.000101  -0.000101  -0.000001  -0.000011   0.000002   0.000000
    18  H   -0.002103  -0.000001   0.000000   0.000000   0.000000   0.000003
    19  H    0.468030   0.001488   0.000005  -0.000001   0.000000   0.000000
    20  H    0.001488   0.324308   0.000084   0.000981  -0.000041   0.000000
    21  H    0.000005   0.000084   0.499080  -0.023389  -0.017692   0.000000
    22  H   -0.000001   0.000981  -0.023389   0.515694  -0.017989   0.000000
    23  H    0.000000  -0.000041  -0.017692  -0.017989   0.457079   0.000000
    24  H    0.000000   0.000000   0.000000   0.000000   0.000000   0.461754
 Mulliken atomic charges:
              1
     1  C   -0.579164
     2  C    0.742115
     3  O   -0.602906
     4  N   -0.876071
     5  C    0.295552
     6  C   -0.229013
     7  C   -0.205992
     8  C    0.276905
     9  C   -0.240678
    10  C   -0.188123
    11  S    0.289568
    12  C    0.099168
    13  N   -0.540752
    14  C   -0.527206
    15  H    0.194549
    16  H    0.193233
    17  H    0.258526
    18  H    0.223824
    19  H    0.208727
    20  H    0.388733
    21  H    0.195982
    22  H    0.182285
    23  H    0.220956
    24  H    0.219782
 Sum of Mulliken atomic charges =   0.00000
 Mulliken charges with hydrogens summed into heavy atoms:
              1
     1  C    0.020059
     2  C    0.742115
     3  O   -0.602906
     4  N   -0.487339
     5  C    0.295552
     6  C   -0.020285
     7  C    0.017832
     8  C    0.276905
     9  C   -0.240678
    10  C    0.070403
    11  S    0.289568
    12  C    0.099168
    13  N   -0.540752
    14  C    0.080358
 Sum of Mulliken charges with hydrogens summed into heavy atoms =   0.00000
 DipInt: DoE/N= T F RetVal/Mat= T F Init=T NMatP=  1 IDeriv=0 Min/MaxMlt=  0  4
 Entering OneElI...
 OneElI was handed    33411559 working-precision words.
 Multipole integrals L=0 to 4 MinM= 0 MaxM= 0.
 Requested accuracy = 0.1000D-12
 PrsmSu:  NPrtUS=   1 ThrOK=F IAlg=1 NPAlg=1 LenDen=           0.
 Prism:   IPart=     0 DynPar=F LinDyn=F Incr=          24.
 PRISM was handed    33178757 working-precision words and  2449 shell-pairs
 IPart=  0 NShTot=        2449 NBatch=          52 AvBLen=        47.1
 PrSmSu:  NxtVal=             25.
 Electronic moments (au):
       -108.00000000         -0.54591350          0.83935300         -0.75237831
      -3255.86127737       -592.28245093       -115.40427871        -11.08685568
          4.42517096          1.19910466       2414.04572102       -503.84499369
         -0.12941503       -114.57889858       1947.86758200       -738.19250350
         93.42600968         33.24454700        -99.43993687       -347.11852603
    -203871.37094418      -8190.30661629       -486.84453672      -2764.36367740
        553.67260534       -179.78406731       -138.87268698        -40.71139552
         39.85589942     -10572.82771037      -4130.01993021       -658.83273472
       1148.88005235        512.78702123        -48.75863183
 Electronic spatial extent (au):  <R**2>=           3963.5480
 DipInt: DoE/N= F T RetVal/Mat= T F Init=T NMatP=  1 IDeriv=0 Min/MaxMlt=  0  4
 Nuclear    moments (au):
        108.00000000          0.00000000          0.00000000          0.00000000
       3206.90039912        524.56009026         47.62509689          0.00000000
          0.00000000          0.00000000      -2474.73982401        523.53906874
          0.04633837        109.76933713      -1943.72668593        716.30586794
       -106.70975204        -35.48653146         93.70152342        339.70696840
     194075.07314929       6161.24712121         74.66376083       2423.97510346
       -427.24843068         98.22545999        168.05433716         58.37458775
        -58.14046629       8154.14659169       2160.79195851        217.25311922
      -1154.98708495       -469.45105078         26.36444202
 Total      moments (au):
          0.00000000         -0.54591350          0.83935300         -0.75237831
        -48.96087825        -67.72236067        -67.77918182        -11.08685568
          4.42517096          1.19910466        -60.69410299         19.69407505
         -0.08307666         -4.80956146          4.14089607        -21.88663556
        -13.28374236         -2.24198446         -5.73841345         -7.41155762
      -9796.29779489      -2029.05949508       -412.18077588       -340.38857395
        126.42417466        -81.55860732         29.18165018         17.66319223
        -18.28456686      -2418.68111867      -1969.22797170       -441.57961550
         -6.10703259         43.33597045        -22.39418981
 Traceless Quadrup. (au):
         12.52659533         -6.23488709         -6.29170824        -11.08685568
          4.42517096          1.19910466
 Charge=              0.0000 electrons
 Dipole moment (field-independent basis, Debye):
    X=             -1.3876    Y=              2.1334    Z=             -1.9124  Tot=              3.1834
 Quadrupole moment (field-independent basis, Debye-Ang):
   XX=            -65.8541   YY=            -91.0889   ZZ=            -91.1653
   XY=            -14.9122   XZ=              5.9520   YZ=              1.6128
 Traceless Quadrupole moment (field-independent basis, Debye-Ang):
   XX=             16.8487   YY=             -8.3861   ZZ=             -8.4626
   XY=            -14.9122   XZ=              5.9520   YZ=              1.6128
 Octapole moment (field-independent basis, Debye-Ang**2):
  XXX=            -43.1997  YYY=             14.0175  ZZZ=             -0.0591  XYY=             -3.4233
  XXY=              2.9473  XXZ=            -15.5781  XZZ=             -9.4549  YZZ=             -1.5958
  YYZ=             -4.0844  XYZ=             -5.2753
 Hexadecapole moment (field-independent basis, Debye-Ang**3):
 XXXX=          -3689.7553 YYYY=           -764.2411 ZZZZ=           -155.2470 XXXY=           -128.2067
 XXXZ=             47.6174 YYYX=            -30.7189 YYYZ=             10.9912 ZZZX=              6.6528
 ZZZY=             -6.8868 XXYY=           -910.9912 XXZZ=           -741.7056 YYZZ=           -166.3200
 XXYZ=             -2.3002 YYXZ=             16.3224 ZZXY=             -8.4347
 N-N= 9.264959335909D+02 E-N=-4.127000077082D+03  KE= 9.643307330876D+02
 Entering OneElI...
 OneElI was handed    33301213 working-precision words.
 Calculate electrostatic properties
    NBasis =   234  MinDer = 0  MaxDer = 0
    NGrid  =    24  NMatD  =   1
 Requested accuracy = 0.1000D-12
 PrsmSu:  NPrtUS=   1 ThrOK=F IAlg=1 NPAlg=1 LenDen=           0.
 Prism:   IPart=     0 DynPar=F LinDyn=F Incr=         512.
 PRISM was handed    33088596 working-precision words and  2201 shell-pairs
 IPart=  0 NShTot=       52824 NBatch=        2201 AvBLen=        24.0
 PrSmSu:  NxtVal=            513.
 --------------------------------------------------------
       Center         ----      EFG at Nuclei      ----
                      3XX-RR        3YY-RR        3ZZ-RR
 --------------------------------------------------------
     1   Atom       -0.061307      0.052228      0.009079
     2   Atom        0.309904      0.075145     -0.385049
     3   Atom        1.371030     -0.819355     -0.551675
     4   Atom       -0.506493      0.169838      0.336655
     5   Atom       -0.129263      0.297442     -0.168179
     6   Atom        0.163546      0.101979     -0.265525
     7   Atom        0.172176      0.120630     -0.292806
     8   Atom        0.014718      0.206332     -0.221050
     9   Atom        0.132246      0.028930     -0.161176
    10   Atom        0.113840      0.165001     -0.278841
    11   Atom       -2.051765      0.083262      1.968502
    12   Atom        0.245210      0.086263     -0.331472
    13   Atom       -0.034265      0.502129     -0.467864
    14   Atom       -0.109398      0.075894      0.033505
    15   Atom        0.121454     -0.034952     -0.086502
    16   Atom        0.086679      0.086178     -0.172857
    17   Atom        0.087664     -0.234159      0.146495
    18   Atom        0.092040     -0.241870      0.149830
    19   Atom       -0.034225     -0.132693      0.166918
    20   Atom        0.040656     -0.022664     -0.017992
    21   Atom        0.127338     -0.167924      0.040586
    22   Atom        0.085866      0.146681     -0.232547
    23   Atom        0.036150     -0.093056      0.056906
    24   Atom        0.039040     -0.169722      0.130682
 --------------------------------------------------------
                        XY            XZ            YZ
 --------------------------------------------------------
     1   Atom        0.022511      0.002753     -0.019517
     2   Atom       -0.141837     -0.010185     -0.317402
     3   Atom        0.685641     -0.720339     -0.260384
     4   Atom       -0.241845     -0.261214      0.749215
     5   Atom       -0.078551     -0.001665      0.047780
     6   Atom        0.018691      0.034482      0.040631
     7   Atom       -0.006519      0.052721      0.069373
     8   Atom       -0.073524      0.014313      0.064802
     9   Atom        0.197107      0.067225      0.058543
    10   Atom       -0.007156      0.063444      0.053789
    11   Atom       -0.069914     -0.453219     -0.320665
    12   Atom       -0.174396      0.029939      0.053312
    13   Atom        0.580901      0.147121      0.229404
    14   Atom        0.016106     -0.010788      0.008057
    15   Atom        0.049563     -0.057264      0.209770
    16   Atom        0.055659      0.122569     -0.144158
    17   Atom       -0.135348     -0.037261     -0.086929
    18   Atom       -0.143675     -0.031583     -0.081888
    19   Atom        0.223092      0.013139     -0.027147
    20   Atom        0.159952     -0.188192      0.274974
    21   Atom        0.054130      0.032175     -0.184843
    22   Atom        0.015612     -0.136629      0.044020
    23   Atom       -0.154656      0.095364      0.144665
    24   Atom       -0.173223     -0.039500     -0.069880
 --------------------------------------------------------


 ---------------------------------------------------------------------------------
              Nuclear Quadrupole in Principal Axis System
 ---------------------------------------------------------------------------------

       Atom             a.u.   MegaHertz   Gauss  10(-4) cm-1        Axes

              Baa    -0.0662    -8.879    -3.168    -2.962  0.9759 -0.2000 -0.0876
     1 C(13)  Bbb     0.0031     0.423     0.151     0.141  0.1472  0.3065  0.9404
              Bcc     0.0630     8.456     3.017     2.821  0.1612  0.9306 -0.3285
 
              Baa    -0.5534   -74.259   -26.497   -24.770  0.0867  0.4646  0.8813
     2 C(13)  Bbb     0.1492    20.016     7.142     6.677  0.5844  0.6927 -0.4227
              Bcc     0.4042    54.243    19.355    18.093  0.8068 -0.5517  0.2114
 
              Baa    -1.0268    74.302    26.513    24.784 -0.2130  0.9561  0.2010
     3 O(17)  Bbb    -0.7880    57.019    20.346    19.019  0.3478 -0.1181  0.9301
              Bcc     1.8148  -131.321   -46.858   -43.804  0.9130  0.2680 -0.3074
 
              Baa    -0.5864   -22.617    -8.070    -7.544  0.9737  0.1960  0.1164
     4 N(14)  Bbb    -0.5002   -19.291    -6.884    -6.435 -0.0666  0.7330 -0.6770
              Bcc     1.0866    41.908    14.954    13.979 -0.2180  0.6514  0.7267
 
              Baa    -0.1743   -23.384    -8.344    -7.800 -0.1918 -0.1305  0.9727
     5 C(13)  Bbb    -0.1418   -19.030    -6.790    -6.348  0.9660  0.1499  0.2105
              Bcc     0.3161    42.414    15.134    14.148 -0.1732  0.9801  0.0973
 
              Baa    -0.2724   -36.548   -13.041   -12.191 -0.0740 -0.1040  0.9918
     6 C(13)  Bbb     0.0990    13.287     4.741     4.432 -0.3145  0.9462  0.0757
              Bcc     0.1733    23.261     8.300     7.759  0.9464  0.3064  0.1027
 
              Baa    -0.3100   -41.596   -14.843   -13.875 -0.1094 -0.1597  0.9811
     7 C(13)  Bbb     0.1319    17.696     6.314     5.903 -0.0441  0.9868  0.1557
              Bcc     0.1781    23.901     8.528     7.972  0.9930  0.0262  0.1150
 
              Baa    -0.2333   -31.305   -11.170   -10.442 -0.1047 -0.1621  0.9812
     8 C(13)  Bbb    -0.0051    -0.683    -0.244    -0.228  0.9473  0.2841  0.1480
              Bcc     0.2384    31.988    11.414    10.670 -0.3027  0.9450  0.1239
 
              Baa    -0.1788   -23.990    -8.560    -8.002 -0.0920 -0.1883  0.9778
     9 C(13)  Bbb    -0.1227   -16.464    -5.875    -5.492 -0.6240  0.7762  0.0907
              Bcc     0.3015    40.454    14.435    13.494  0.7760  0.6018  0.1889
 
              Baa    -0.2952   -39.617   -14.136   -13.215 -0.1542 -0.1171  0.9811
    10 C(13)  Bbb     0.1238    16.613     5.928     5.541  0.9880 -0.0269  0.1521
              Bcc     0.1714    23.004     8.209     7.673  0.0086  0.9928  0.1198
 
              Baa    -2.1073   -86.398   -30.829   -28.819  0.9923  0.0484  0.1141
    11 S(33)  Bbb     0.0396     1.622     0.579     0.541 -0.0652  0.9867  0.1487
              Bcc     2.0678    84.776    30.250    28.278 -0.1054 -0.1550  0.9823
 
              Baa    -0.3432   -46.058   -16.435   -15.363 -0.0979 -0.1616  0.9820
    12 C(13)  Bbb    -0.0142    -1.902    -0.679    -0.635  0.5328  0.8249  0.1889
              Bcc     0.3574    47.961    17.114    15.998  0.8406 -0.5417 -0.0054
 
              Baa    -0.5211   -20.098    -7.171    -6.704 -0.1055 -0.1601  0.9814
    13 N(14)  Bbb    -0.4059   -15.654    -5.586    -5.222  0.8421 -0.5394  0.0025
              Bcc     0.9270    35.752    12.757    11.926  0.5289  0.8267  0.1918
 
              Baa    -0.1117   -14.988    -5.348    -4.999  0.9930 -0.0886  0.0787
    14 C(13)  Bbb     0.0333     4.464     1.593     1.489 -0.0915 -0.1514  0.9842
              Bcc     0.0784    10.524     3.755     3.510  0.0753  0.9845  0.1585
 
              Baa    -0.2861  -152.673   -54.478   -50.926  0.1827 -0.6512  0.7366
    15 H(1)   Bbb     0.1355    72.286    25.794    24.112  0.9818  0.1607 -0.1014
              Bcc     0.1507    80.387    28.684    26.814 -0.0524  0.7417  0.6687
 
              Baa    -0.2858  -152.481   -54.409   -50.862 -0.3399  0.3836  0.8587
    16 H(1)   Bbb     0.1353    72.178    25.755    24.076  0.9389  0.0862  0.3332
              Bcc     0.1505    80.302    28.654    26.786  0.0538  0.9195 -0.3895
 
              Baa    -0.3033  -161.848   -57.751   -53.987  0.3376  0.9186  0.2055
    17 H(1)   Bbb     0.1362    72.645    25.921    24.232  0.9137 -0.3722  0.1631
              Bcc     0.1672    89.203    31.830    29.755 -0.2263 -0.1327  0.9650
 
              Baa    -0.3119  -166.395   -59.374   -55.503  0.3422  0.9209  0.1867
    18 H(1)   Bbb     0.1453    77.521    27.661    25.858  0.9327 -0.3569  0.0510
              Bcc     0.1666    88.874    31.712    29.645 -0.1136 -0.1567  0.9811
 
              Baa    -0.3137  -167.384   -59.727   -55.833 -0.6244  0.7787  0.0611
    19 H(1)   Bbb     0.1432    76.413    27.266    25.489  0.7640  0.5926  0.2552
              Bcc     0.1705    90.971    32.461    30.345 -0.1626 -0.2060  0.9649
 
              Baa    -0.4254  -226.987   -80.995   -75.715  0.4674 -0.6175  0.6326
    20 H(1)   Bbb     0.1667    88.948    31.739    29.670  0.8636  0.4719 -0.1773
              Bcc     0.2587   138.039    49.256    46.045 -0.1890  0.6292  0.7539
 
              Baa    -0.2855  -152.324   -54.353   -50.810 -0.1508  0.8535  0.4987
    21 H(1)   Bbb     0.1369    73.055    26.068    24.369  0.9877  0.1508  0.0406
              Bcc     0.1486    79.269    28.285    26.441  0.0406 -0.4987  0.8658
 
              Baa    -0.2882  -153.744   -54.860   -51.283  0.3451 -0.1068  0.9325
    22 H(1)   Bbb     0.1364    72.791    25.974    24.281  0.9386  0.0417 -0.3426
              Bcc     0.1517    80.953    28.886    27.003 -0.0023  0.9934  0.1146
 
              Baa    -0.2841  -151.582   -54.088   -50.562  0.4935  0.7425 -0.4530
    23 H(1)   Bbb     0.1391    74.198    26.476    24.750  0.8574 -0.5029  0.1096
              Bcc     0.1450    77.384    27.613    25.813  0.1464  0.4425  0.8847
 
              Baa    -0.2832  -151.077   -53.908   -50.394  0.4829  0.8547  0.1904
    24 H(1)   Bbb     0.1369    73.044    26.064    24.365  0.8705 -0.4922  0.0020
              Bcc     0.1463    78.033    27.844    26.029 -0.0955 -0.1648  0.9817
 

 ---------------------------------------------------------------------------------

 No NMR shielding tensors so no spin-rotation constants.
 Leave Link  601 at Thu Jun 16 11:09:28 2016, MaxMem=   33554432 cpu:       0.3
 Merz-Kollman atomic radii used.
 Atom Element Radius
    1     6    1.50
    2     6    1.50
    3     8    1.40
    4     7    1.50
    5     6    1.50
    6     6    1.50
    7     6    1.50
    8     6    1.50
    9     6    1.50
   10     6    1.50
   11    16    1.75
   12     6    1.50
   13     7    1.50
   14     6    1.50
   15     1    1.20
   16     1    1.20
   17     1    1.20
   18     1    1.20
   19     1    1.20
   20     1    1.20
   21     1    1.20
   22     1    1.20
   23     1    1.20
   24     1    1.20
 Generate VDW surfaces: Layer= 4 Dens= 6 Start= 1.400 Inc= 0.200

 **********************************************************************

            Electrostatic Properties Using The SCF Density

 **********************************************************************

       Atomic Center    1 is at  -5.034941 -0.239360  0.171085
       Atomic Center    2 is at  -3.552856 -0.550893  0.131945
       Atomic Center    3 is at  -3.070841 -1.576979  0.616757
       Atomic Center    4 is at  -2.779302  0.407448 -0.473291
       Atomic Center    5 is at  -1.378455  0.622755 -0.281368
       Atomic Center    6 is at  -0.868152  1.899216 -0.012613
       Atomic Center    7 is at   0.490862  2.090414  0.168141
       Atomic Center    8 is at   1.375709  1.023888  0.094872
       Atomic Center    9 is at   0.845445 -0.241175 -0.172611
       Atomic Center   10 is at  -0.515493 -0.445341 -0.361679
       Atomic Center   11 is at   2.119509 -1.432242 -0.227925
       Atomic Center   12 is at   3.279946 -0.139805  0.103134
       Atomic Center   13 is at   2.767074  1.055055  0.252787
       Atomic Center   14 is at   4.755490 -0.395069  0.206276
       Atomic Center   15 is at   4.947819 -1.108882  1.020384
       Atomic Center   16 is at   5.122028 -0.813449 -0.742714
       Atomic Center   17 is at  -0.894911 -1.439298 -0.571192
       Atomic Center   18 is at   0.867930  3.086452  0.370862
       Atomic Center   19 is at  -1.543900  2.744131  0.054363
       Atomic Center   20 is at  -3.243390  1.018539 -1.115026
       Atomic Center   21 is at  -5.197912  0.697639  0.724524
       Atomic Center   22 is at  -5.412440 -0.128901 -0.855701
       Atomic Center   23 is at  -5.568514 -1.059954  0.671901
       Atomic Center   24 is at   5.278142  0.550124  0.415767
      ESP Fit Center   25 is at  -5.034941 -0.239360  2.271085
      ESP Fit Center   26 is at  -4.625252 -0.239360  2.230734
      ESP Fit Center   27 is at  -5.444631 -0.239360  2.230734
      ESP Fit Center   28 is at  -4.830096 -0.594161  2.230734
      ESP Fit Center   29 is at  -4.231306 -0.239360  2.111232
      ESP Fit Center   30 is at  -4.338973  0.162458  2.111232
      ESP Fit Center   31 is at  -4.633124 -0.935328  2.111232
      ESP Fit Center   32 is at  -4.338973 -0.641177  2.111232
      ESP Fit Center   33 is at  -6.181774 -0.024980  1.917171
      ESP Fit Center   34 is at  -6.730289  0.178506  1.337783
      ESP Fit Center   35 is at  -6.873528  0.380132  0.974720
      ESP Fit Center   36 is at  -6.963715 -0.029593  0.974720
      ESP Fit Center   37 is at  -7.000133  0.377223  0.580775
      ESP Fit Center   38 is at  -7.084023 -0.030988  0.580775
      ESP Fit Center   39 is at  -6.781027  0.927338  0.171085
      ESP Fit Center   40 is at  -6.975088  0.564276  0.171085
      ESP Fit Center   41 is at  -7.094590  0.170330  0.171085
      ESP Fit Center   42 is at  -7.134941 -0.239360  0.171085
      ESP Fit Center   43 is at  -6.597717  1.102239 -0.238604
      ESP Fit Center   44 is at  -6.835788  0.760192 -0.238604
      ESP Fit Center   45 is at  -7.000133  0.377223 -0.238604
      ESP Fit Center   46 is at  -7.084023 -0.030988 -0.238604
      ESP Fit Center   47 is at  -7.084023 -0.447731 -0.238604
      ESP Fit Center   48 is at  -7.000133 -0.855943 -0.238604
      ESP Fit Center   49 is at  -4.723053 -2.275258 -0.238604
      ESP Fit Center   50 is at  -4.929904  1.697942 -0.632550
      ESP Fit Center   51 is at  -5.753064  1.562992 -0.632550
      ESP Fit Center   52 is at  -6.697370 -1.239610 -0.632550
      ESP Fit Center   53 is at  -5.348822 -2.153948 -0.632550
      ESP Fit Center   54 is at  -4.929904 -2.176661 -0.632550
      ESP Fit Center   55 is at  -5.654112 -1.871979 -0.995612
      ESP Fit Center   56 is at  -5.245409 -1.972715 -0.995612
      ESP Fit Center   57 is at  -4.824474 -1.972715 -0.995612
      ESP Fit Center   58 is at  -4.823615 -1.709170 -1.313839
      ESP Fit Center   59 is at  -3.552856 -0.550893  2.231945
      ESP Fit Center   60 is at  -3.348011 -0.196091  2.191595
      ESP Fit Center   61 is at  -3.757701 -0.196091  2.191595
      ESP Fit Center   62 is at  -3.962546 -0.550893  2.191595
      ESP Fit Center   63 is at  -2.856888 -0.149075  2.072092
      ESP Fit Center   64 is at  -3.151039  0.145076  2.072092
      ESP Fit Center   65 is at  -3.552856  0.252742  2.072092
      ESP Fit Center   66 is at  -3.954674  0.145076  2.072092
      ESP Fit Center   67 is at  -4.248825 -0.952710  2.072092
      ESP Fit Center   68 is at  -2.464943 -0.129433  1.878032
      ESP Fit Center   69 is at  -2.690656  0.235106  1.878032
      ESP Fit Center   70 is at  -3.032814  0.493492  1.878032
      ESP Fit Center   71 is at  -3.445207  0.610828  1.878032
      ESP Fit Center   72 is at  -3.872138  0.571267  1.878032
      ESP Fit Center   73 is at  -2.128082 -0.132541  1.616870
      ESP Fit Center   74 is at  -2.303658  0.251918  1.616870
      ESP Fit Center   75 is at  -2.580438  0.571338  1.616870
      ESP Fit Center   76 is at  -2.935996  0.799842  1.616870
      ESP Fit Center   77 is at  -3.341529  0.918917  1.616870
      ESP Fit Center   78 is at  -3.764183  0.918917  1.616870
      ESP Fit Center   79 is at  -4.641642 -2.156731 -0.671690
      ESP Fit Center   80 is at  -4.544746 -1.987894 -1.034752
      ESP Fit Center   81 is at  -4.172027 -2.183512 -1.034752
      ESP Fit Center   82 is at  -4.525275 -1.673124 -1.352979
      ESP Fit Center   83 is at  -4.169716 -1.901627 -1.352979
      ESP Fit Center   84 is at  -3.764183 -2.020703 -1.352979
      ESP Fit Center   85 is at  -3.341529 -2.020703 -1.352979
      ESP Fit Center   86 is at  -2.935996 -1.901627 -1.352979
      ESP Fit Center   87 is at  -2.580438 -1.673124 -1.352979
      ESP Fit Center   88 is at  -4.255949 -1.481937 -1.614141
      ESP Fit Center   89 is at  -3.872138 -1.673052 -1.614141
      ESP Fit Center   90 is at  -3.445207 -1.712613 -1.614141
      ESP Fit Center   91 is at  -3.032814 -1.595278 -1.614141
      ESP Fit Center   92 is at  -4.248825 -0.952710 -1.808202
      ESP Fit Center   93 is at  -3.954674 -1.246861 -1.808202
      ESP Fit Center   94 is at  -3.552856 -1.354528 -1.808202
      ESP Fit Center   95 is at  -3.151039 -1.246861 -1.808202
      ESP Fit Center   96 is at  -3.962546 -0.550893 -1.927704
      ESP Fit Center   97 is at  -3.757701 -0.905694 -1.927704
      ESP Fit Center   98 is at  -3.070841 -1.576979  2.576757
      ESP Fit Center   99 is at  -2.663334 -1.576979  2.533926
      ESP Fit Center  100 is at  -2.867088 -1.224068  2.533926
      ESP Fit Center  101 is at  -3.274594 -1.224068  2.533926
      ESP Fit Center  102 is at  -3.478348 -1.576979  2.533926
      ESP Fit Center  103 is at  -3.274594 -1.929891  2.533926
      ESP Fit Center  104 is at  -2.867088 -1.929891  2.533926
      ESP Fit Center  105 is at  -2.273637 -1.576979  2.407306
      ESP Fit Center  106 is at  -2.380442 -1.178377  2.407306
      ESP Fit Center  107 is at  -2.672239 -0.886580  2.407306
      ESP Fit Center  108 is at  -3.070841 -0.779775  2.407306
      ESP Fit Center  109 is at  -3.469443 -0.886580  2.407306
      ESP Fit Center  110 is at  -3.761240 -1.178377  2.407306
      ESP Fit Center  111 is at  -3.868045 -1.576979  2.407306
      ESP Fit Center  112 is at  -3.761240 -1.975581  2.407306
      ESP Fit Center  113 is at  -3.469443 -2.267378  2.407306
      ESP Fit Center  114 is at  -3.070841 -2.374183  2.407306
      ESP Fit Center  115 is at  -2.672239 -2.267378  2.407306
      ESP Fit Center  116 is at  -2.380442 -1.975581  2.407306
      ESP Fit Center  117 is at  -1.918782 -1.576979  2.202430
      ESP Fit Center  118 is at  -1.996578 -1.160807  2.202430
      ESP Fit Center  119 is at  -2.219459 -0.800842  2.202430
      ESP Fit Center  120 is at  -2.557324 -0.545698  2.202430
      ESP Fit Center  121 is at  -2.964542 -0.429835  2.202430
      ESP Fit Center  122 is at  -4.050341 -0.970498  2.202430
      ESP Fit Center  123 is at  -4.203284 -1.365289  2.202430
      ESP Fit Center  124 is at  -4.203284 -1.788669  2.202430
      ESP Fit Center  125 is at  -4.050341 -2.183460  2.202430
      ESP Fit Center  126 is at  -3.765112 -2.496342  2.202430
      ESP Fit Center  127 is at  -3.386117 -2.685059  2.202430
      ESP Fit Center  128 is at  -2.964542 -2.724124  2.202430
      ESP Fit Center  129 is at  -2.557324 -2.608260  2.202430
      ESP Fit Center  130 is at  -2.219459 -2.353116  2.202430
      ESP Fit Center  131 is at  -1.996578 -1.993151  2.202430
      ESP Fit Center  132 is at  -1.614277 -1.576979  1.928253
      ESP Fit Center  133 is at  -1.673278 -1.166618  1.928253
      ESP Fit Center  134 is at  -1.845501 -0.789501  1.928253
      ESP Fit Center  135 is at  -2.116994 -0.476182  1.928253
      ESP Fit Center  136 is at  -2.465762 -0.252042  1.928253
      ESP Fit Center  137 is at  -4.527405 -1.576979  1.928253
      ESP Fit Center  138 is at  -4.468404 -1.987341  1.928253
      ESP Fit Center  139 is at  -4.296180 -2.364457  1.928253
      ESP Fit Center  140 is at  -4.024687 -2.677777  1.928253
      ESP Fit Center  141 is at  -3.675919 -2.901916  1.928253
      ESP Fit Center  142 is at  -3.278132 -3.018717  1.928253
      ESP Fit Center  143 is at  -2.863550 -3.018717  1.928253
      ESP Fit Center  144 is at  -2.465762 -2.901916  1.928253
      ESP Fit Center  145 is at  -2.116994 -2.677777  1.928253
      ESP Fit Center  146 is at  -1.845501 -2.364457  1.928253
      ESP Fit Center  147 is at  -1.673278 -1.987341  1.928253
      ESP Fit Center  148 is at  -1.373431 -1.576979  1.596757
      ESP Fit Center  149 is at  -1.426758 -1.154851  1.596757
      ESP Fit Center  150 is at  -1.583389 -0.759246  1.596757
      ESP Fit Center  151 is at  -1.833482 -0.415022  1.596757
      ESP Fit Center  152 is at  -4.649053 -2.201837  1.596757
      ESP Fit Center  153 is at  -4.444074 -2.574692  1.596757
      ESP Fit Center  154 is at  -4.152811 -2.884856  1.596757
      ESP Fit Center  155 is at  -3.793563 -3.112841  1.596757
      ESP Fit Center  156 is at  -3.388904 -3.244323  1.596757
      ESP Fit Center  157 is at  -2.964260 -3.271040  1.596757
      ESP Fit Center  158 is at  -2.546312 -3.191312  1.596757
      ESP Fit Center  159 is at  -2.161323 -3.010150  1.596757
      ESP Fit Center  160 is at  -1.833482 -2.738936  1.596757
      ESP Fit Center  161 is at  -1.583389 -2.394713  1.596757
      ESP Fit Center  162 is at  -1.426758 -1.999108  1.596757
      ESP Fit Center  163 is at  -4.528230 -2.739208  1.222430
      ESP Fit Center  164 is at  -4.233070 -3.034368  1.222430
      ESP Fit Center  165 is at  -3.879631 -3.256449  1.222430
      ESP Fit Center  166 is at  -3.485636 -3.394314  1.222430
      ESP Fit Center  167 is at  -3.070841 -3.441050  1.222430
      ESP Fit Center  168 is at  -2.656046 -3.394314  1.222430
      ESP Fit Center  169 is at  -2.262051 -3.256449  1.222430
      ESP Fit Center  170 is at  -1.908612 -3.034368  1.222430
      ESP Fit Center  171 is at  -1.613452 -2.739208  1.222430
      ESP Fit Center  172 is at  -1.391371 -2.385769  1.222430
      ESP Fit Center  173 is at  -1.253506 -1.991774  1.222430
      ESP Fit Center  174 is at  -4.741081 -2.581929  0.821633
      ESP Fit Center  175 is at  -4.485997 -2.917486  0.821633
      ESP Fit Center  176 is at  -4.164742 -3.190363  0.821633
      ESP Fit Center  177 is at  -3.792338 -3.387799  0.821633
      ESP Fit Center  178 is at  -3.386197 -3.500564  0.821633
      ESP Fit Center  179 is at  -2.965310 -3.523383  0.821633
      ESP Fit Center  180 is at  -2.549358 -3.455191  0.821633
      ESP Fit Center  181 is at  -2.157790 -3.299176  0.821633
      ESP Fit Center  182 is at  -1.808915 -3.062633  0.821633
      ESP Fit Center  183 is at  -1.519046 -2.756623  0.821633
      ESP Fit Center  184 is at  -1.301738 -2.395453  0.821633
      ESP Fit Center  185 is at  -4.741081 -2.581929  0.411881
      ESP Fit Center  186 is at  -4.485997 -2.917486  0.411881
      ESP Fit Center  187 is at  -4.164742 -3.190363  0.411881
      ESP Fit Center  188 is at  -3.792338 -3.387799  0.411881
      ESP Fit Center  189 is at  -3.386197 -3.500564  0.411881
      ESP Fit Center  190 is at  -2.965310 -3.523383  0.411881
      ESP Fit Center  191 is at  -2.549358 -3.455191  0.411881
      ESP Fit Center  192 is at  -2.157790 -3.299176  0.411881
      ESP Fit Center  193 is at  -1.808915 -3.062633  0.411881
      ESP Fit Center  194 is at  -1.519046 -2.756623  0.411881
      ESP Fit Center  195 is at  -4.750311 -2.385769  0.011083
      ESP Fit Center  196 is at  -4.528230 -2.739208  0.011083
      ESP Fit Center  197 is at  -4.233070 -3.034368  0.011083
      ESP Fit Center  198 is at  -3.879631 -3.256449  0.011083
      ESP Fit Center  199 is at  -3.485636 -3.394314  0.011083
      ESP Fit Center  200 is at  -3.070841 -3.441050  0.011083
      ESP Fit Center  201 is at  -2.656046 -3.394314  0.011083
      ESP Fit Center  202 is at  -2.262051 -3.256449  0.011083
      ESP Fit Center  203 is at  -1.908612 -3.034368  0.011083
      ESP Fit Center  204 is at  -4.444074 -2.574692 -0.363243
      ESP Fit Center  205 is at  -4.152811 -2.884856 -0.363243
      ESP Fit Center  206 is at  -3.793563 -3.112841 -0.363243
      ESP Fit Center  207 is at  -3.388904 -3.244323 -0.363243
      ESP Fit Center  208 is at  -2.964260 -3.271040 -0.363243
      ESP Fit Center  209 is at  -2.546312 -3.191312 -0.363243
      ESP Fit Center  210 is at  -2.161323 -3.010150 -0.363243
      ESP Fit Center  211 is at  -4.296180 -2.364457 -0.694739
      ESP Fit Center  212 is at  -4.024687 -2.677777 -0.694739
      ESP Fit Center  213 is at  -3.675919 -2.901916 -0.694739
      ESP Fit Center  214 is at  -3.278132 -3.018717 -0.694739
      ESP Fit Center  215 is at  -2.863550 -3.018717 -0.694739
      ESP Fit Center  216 is at  -2.465762 -2.901916 -0.694739
      ESP Fit Center  217 is at  -2.116994 -2.677777 -0.694739
      ESP Fit Center  218 is at  -3.765112 -2.496342 -0.968917
      ESP Fit Center  219 is at  -3.386117 -2.685059 -0.968917
      ESP Fit Center  220 is at  -2.964542 -2.724124 -0.968917
      ESP Fit Center  221 is at  -2.557324 -2.608260 -0.968917
      ESP Fit Center  222 is at  -3.469443 -2.267378 -1.173792
      ESP Fit Center  223 is at  -3.070841 -2.374183 -1.173792
      ESP Fit Center  224 is at  -2.672239 -2.267378 -1.173792
      ESP Fit Center  225 is at  -2.380442 -1.975581 -1.173792
      ESP Fit Center  226 is at  -2.867088 -1.929891 -1.300413
      ESP Fit Center  227 is at  -2.369612  0.407448  1.586358
      ESP Fit Center  228 is at  -2.574457  0.762250  1.586358
      ESP Fit Center  229 is at  -2.779302  1.211083  1.466856
      ESP Fit Center  230 is at  -3.181120  1.103417  1.466856
      ESP Fit Center  231 is at  -2.671653  1.569169  1.272796
      ESP Fit Center  232 is at  -3.098584  1.529608  1.272796
      ESP Fit Center  233 is at  -3.482394  1.338493  1.272796
      ESP Fit Center  234 is at  -2.990629  1.877258  1.011634
      ESP Fit Center  235 is at  -3.396162  1.758183  1.011634
      ESP Fit Center  236 is at  -3.751721  1.529679  1.011634
      ESP Fit Center  237 is at  -2.989769  2.140803  0.693407
      ESP Fit Center  238 is at  -3.398473  2.040067  0.693407
      ESP Fit Center  239 is at  -3.771192  1.844449  0.693407
      ESP Fit Center  240 is at  -3.497424  2.209800  0.330345
      ESP Fit Center  241 is at  -3.868087  2.013286  0.330345
      ESP Fit Center  242 is at  -3.295558  2.401347 -0.063601
      ESP Fit Center  243 is at  -3.686359  2.256610 -0.063601
      ESP Fit Center  244 is at  -2.568835 -1.325907 -1.639988
      ESP Fit Center  245 is at  -4.028500 -0.395363 -1.958215
      ESP Fit Center  246 is at  -3.751721 -0.714783 -1.958215
      ESP Fit Center  247 is at  -3.396162 -0.943286 -1.958215
      ESP Fit Center  248 is at  -2.990629 -1.062362 -1.958215
      ESP Fit Center  249 is at  -2.567975 -1.062362 -1.958215
      ESP Fit Center  250 is at  -2.162442 -0.943286 -1.958215
      ESP Fit Center  251 is at  -3.771248 -0.206739 -2.219377
      ESP Fit Center  252 is at  -3.482394 -0.523597 -2.219377
      ESP Fit Center  253 is at  -3.098584 -0.714711 -2.219377
      ESP Fit Center  254 is at  -2.671653 -0.754272 -2.219377
      ESP Fit Center  255 is at  -2.259260 -0.636937 -2.219377
      ESP Fit Center  256 is at  -1.917102 -0.378551 -2.219377
      ESP Fit Center  257 is at  -1.975667  0.407448 -2.413438
      ESP Fit Center  258 is at  -2.083334  0.809266 -2.413438
      ESP Fit Center  259 is at  -3.181120 -0.288520 -2.413438
      ESP Fit Center  260 is at  -2.779302 -0.396187 -2.413438
      ESP Fit Center  261 is at  -2.377484 -0.288520 -2.413438
      ESP Fit Center  262 is at  -2.083334  0.005631 -2.413438
      ESP Fit Center  263 is at  -2.369612  0.407448 -2.532940
      ESP Fit Center  264 is at  -2.984147  0.052646 -2.532940
      ESP Fit Center  265 is at  -2.574457  0.052646 -2.532940
      ESP Fit Center  266 is at  -1.378455  0.622755  1.818632
      ESP Fit Center  267 is at  -0.968766  0.622755  1.778281
      ESP Fit Center  268 is at  -1.583300  0.977557  1.778281
      ESP Fit Center  269 is at  -1.788145  0.622755  1.778281
      ESP Fit Center  270 is at  -1.583300  0.267953  1.778281
      ESP Fit Center  271 is at  -1.173610  0.267953  1.778281
      ESP Fit Center  272 is at  -0.574820  0.622755  1.658779
      ESP Fit Center  273 is at  -2.074424  1.024573  1.658779
      ESP Fit Center  274 is at  -2.182090  0.622755  1.658779
      ESP Fit Center  275 is at  -2.074424  0.220938  1.658779
      ESP Fit Center  276 is at  -1.780273 -0.073213  1.658779
      ESP Fit Center  277 is at  -1.378455 -0.180880  1.658779
      ESP Fit Center  278 is at  -0.976638 -0.073213  1.658779
      ESP Fit Center  279 is at  -0.682487  0.220938  1.658779
      ESP Fit Center  280 is at  -2.370401  1.236942  1.464718
      ESP Fit Center  281 is at   0.046319  1.041107 -1.766292
      ESP Fit Center  282 is at  -0.290542  1.044215 -2.027454
      ESP Fit Center  283 is at  -0.516255  1.408754 -2.027454
      ESP Fit Center  284 is at  -1.697737  1.744915 -2.027454
      ESP Fit Center  285 is at  -0.574820  0.622755 -2.221515
      ESP Fit Center  286 is at  -0.682487  1.024573 -2.221515
      ESP Fit Center  287 is at  -0.976638  1.318724 -2.221515
      ESP Fit Center  288 is at  -1.378455  1.426390 -2.221515
      ESP Fit Center  289 is at  -1.780273  1.318724 -2.221515
      ESP Fit Center  290 is at  -0.968766  0.622755 -2.341017
      ESP Fit Center  291 is at  -1.173610  0.977557 -2.341017
      ESP Fit Center  292 is at  -1.583300  0.977557 -2.341017
      ESP Fit Center  293 is at  -1.788145  0.622755 -2.341017
      ESP Fit Center  294 is at  -1.583300  0.267953 -2.341017
      ESP Fit Center  295 is at  -1.173610  0.267953 -2.341017
      ESP Fit Center  296 is at  -1.378455  0.622755 -2.381368
      ESP Fit Center  297 is at  -0.868152  1.899216  2.087387
      ESP Fit Center  298 is at  -0.458462  1.899216  2.047036
      ESP Fit Center  299 is at  -0.663307  2.254018  2.047036
      ESP Fit Center  300 is at  -1.072997  2.254018  2.047036
      ESP Fit Center  301 is at  -1.277842  1.899216  2.047036
      ESP Fit Center  302 is at  -1.072997  1.544415  2.047036
      ESP Fit Center  303 is at  -0.663307  1.544415  2.047036
      ESP Fit Center  304 is at  -0.868152  2.702852  1.927534
      ESP Fit Center  305 is at  -1.269970  2.595185  1.927534
      ESP Fit Center  306 is at  -1.564120  2.301034  1.927534
      ESP Fit Center  307 is at  -1.671787  1.899216  1.927534
      ESP Fit Center  308 is at  -1.564120  1.497399  1.927534
      ESP Fit Center  309 is at  -1.269970  1.203248  1.927534
      ESP Fit Center  310 is at  -0.868152  1.095581  1.927534
      ESP Fit Center  311 is at  -0.466334  1.203248  1.927534
      ESP Fit Center  312 is at  -0.760503  3.060937  1.733473
      ESP Fit Center  313 is at  -1.187434  3.021376  1.733473
      ESP Fit Center  314 is at  -1.571244  2.830261  1.733473
      ESP Fit Center  315 is at  -1.860098  2.513403  1.733473
      ESP Fit Center  316 is at  -2.014984  2.113596  1.733473
      ESP Fit Center  317 is at  -2.014984  1.684836  1.733473
      ESP Fit Center  318 is at  -1.860098  1.285029  1.733473
      ESP Fit Center  319 is at  -0.760503  0.737496  1.733473
      ESP Fit Center  320 is at  -0.348110  0.854832  1.733473
      ESP Fit Center  321 is at  -0.656825  3.369026  1.472311
      ESP Fit Center  322 is at  -2.353076  1.899216  1.472311
      ESP Fit Center  323 is at  -2.292926  1.480865  1.472311
      ESP Fit Center  324 is at  -2.614238  1.899216  1.154084
      ESP Fit Center  325 is at  -0.349108  3.768645 -0.816248
      ESP Fit Center  326 is at  -0.248981  3.531835 -1.179311
      ESP Fit Center  327 is at  -0.657684  3.632572 -1.179311
      ESP Fit Center  328 is at  -0.251292  3.249951 -1.497537
      ESP Fit Center  329 is at  -0.656825  3.369026 -1.497537
      ESP Fit Center  330 is at  -1.079479  3.369026 -1.497537
      ESP Fit Center  331 is at  -0.348110  2.943601 -1.758699
      ESP Fit Center  332 is at  -0.760503  3.060937 -1.758699
      ESP Fit Center  333 is at  -1.187434  3.021376 -1.758699
      ESP Fit Center  334 is at  -1.571244  2.830261 -1.758699
      ESP Fit Center  335 is at  -1.860098  2.513403 -1.758699
      ESP Fit Center  336 is at  -2.014984  2.113596 -1.758699
      ESP Fit Center  337 is at  -0.064517  1.899216 -1.952760
      ESP Fit Center  338 is at  -0.172183  2.301034 -1.952760
      ESP Fit Center  339 is at  -0.466334  2.595185 -1.952760
      ESP Fit Center  340 is at  -0.868152  2.702852 -1.952760
      ESP Fit Center  341 is at  -1.269970  2.595185 -1.952760
      ESP Fit Center  342 is at  -1.564120  2.301034 -1.952760
      ESP Fit Center  343 is at  -1.671787  1.899216 -1.952760
      ESP Fit Center  344 is at  -0.172183  1.497399 -1.952760
      ESP Fit Center  345 is at  -0.458462  1.899216 -2.072262
      ESP Fit Center  346 is at  -0.663307  2.254018 -2.072262
      ESP Fit Center  347 is at  -1.072997  2.254018 -2.072262
      ESP Fit Center  348 is at  -1.277842  1.899216 -2.072262
      ESP Fit Center  349 is at  -0.663307  1.544415 -2.072262
[...]
 6774 Fit       0.000253
 6775 Fit       0.000027
 6776 Fit       0.000370
 6777 Fit       0.001282
 6778 Fit       0.002610
 6779 Fit       0.003846
 6780 Fit       0.004609
 6781 Fit       0.004785
 6782 Fit       0.003708
 6783 Fit       0.002659
 6784 Fit       0.001658
 6785 Fit       0.001730
 6786 Fit       0.002819
 6787 Fit       0.003804
 6788 Fit       0.002828
 6789 Fit      -0.017760
 6790 Fit      -0.014889
 6791 Fit      -0.017055
 6792 Fit      -0.013886
 6793 Fit      -0.017178
 6794 Fit      -0.013471
 6795 Fit      -0.017242
 6796 Fit      -0.013197
 6797 Fit      -0.020138
 6798 Fit      -0.014934
 6799 Fit      -0.017332
 6800 Fit      -0.012794
 6801 Fit      -0.021809
 6802 Fit      -0.016054
 6803 Fit      -0.011839
 6804 Fit      -0.017329
 6805 Fit      -0.012794
 6806 Fit      -0.020130
 6807 Fit      -0.014932
 6808 Fit      -0.017238
 6809 Fit      -0.013197
 6810 Fit      -0.017177
 6811 Fit      -0.013474
 6812 Fit      -0.021523
 6813 Fit      -0.017062
 6814 Fit      -0.013894
 6815 Fit      -0.017778
 6816 Fit      -0.014906
 6817 Fit      -0.004933
 6818 Fit      -0.002185
 6819 Fit      -0.000233
 6820 Fit       0.000941
 6821 Fit      -0.006462
 6822 Fit      -0.003087
 6823 Fit      -0.000495
 6824 Fit       0.001439
 6825 Fit       0.002833
 6826 Fit       0.003760
 6827 Fit      -0.008288
 6828 Fit      -0.004210
 6829 Fit      -0.001097
 6830 Fit       0.001282
 6831 Fit       0.003113
 6832 Fit       0.004545
 6833 Fit       0.005695
 6834 Fit       0.006632
 6835 Fit      -0.010627
 6836 Fit      -0.005785
 6837 Fit      -0.002170
 6838 Fit       0.000585
 6839 Fit       0.002728
 6840 Fit       0.004437
 6841 Fit       0.005856
 6842 Fit       0.007114
 6843 Fit       0.008334
 6844 Fit       0.009621
 6845 Fit      -0.012469
 6846 Fit      -0.006823
 6847 Fit      -0.002746
 6848 Fit       0.000306
 6849 Fit       0.002660
 6850 Fit       0.004533
 6851 Fit       0.006090
 6852 Fit       0.007477
 6853 Fit       0.008843
 6854 Fit       0.010363
 6855 Fit      -0.007925
 6856 Fit      -0.003507
 6857 Fit      -0.000235
 6858 Fit       0.002276
 6859 Fit       0.004267
 6860 Fit       0.005909
 6861 Fit       0.007349
 6862 Fit       0.008729
 6863 Fit       0.010217
 6864 Fit       0.012039
 6865 Fit      -0.008472
 6866 Fit      -0.003922
 6867 Fit      -0.000562
 6868 Fit       0.002013
 6869 Fit       0.004051
 6870 Fit       0.005728
 6871 Fit       0.007184
 6872 Fit       0.008555
 6873 Fit       0.010000
 6874 Fit       0.011723
 6875 Fit      -0.007924
 6876 Fit      -0.003508
 6877 Fit      -0.000237
 6878 Fit       0.002273
 6879 Fit       0.004263
 6880 Fit       0.005906
 6881 Fit       0.007346
 6882 Fit       0.008726
 6883 Fit       0.010216
 6884 Fit       0.012040
 6885 Fit      -0.012462
 6886 Fit      -0.006823
 6887 Fit      -0.002749
 6888 Fit       0.000300
 6889 Fit       0.002653
 6890 Fit       0.004526
 6891 Fit       0.006083
 6892 Fit       0.007471
 6893 Fit       0.008839
 6894 Fit       0.010363
 6895 Fit      -0.010622
 6896 Fit      -0.005788
 6897 Fit      -0.002177
 6898 Fit       0.000576
 6899 Fit       0.002717
 6900 Fit       0.004426
 6901 Fit       0.005846
 6902 Fit       0.007105
 6903 Fit       0.008327
 6904 Fit       0.009621
 6905 Fit      -0.008290
 6906 Fit      -0.004218
 6907 Fit      -0.001110
 6908 Fit       0.001267
 6909 Fit       0.003098
 6910 Fit       0.004530
 6911 Fit       0.005680
 6912 Fit       0.006621
 6913 Fit      -0.006472
 6914 Fit      -0.003103
 6915 Fit      -0.000514
 6916 Fit       0.001418
 6917 Fit       0.002812
 6918 Fit       0.003738
 6919 Fit      -0.004953
 6920 Fit      -0.002209
 6921 Fit      -0.000260
 6922 Fit       0.000912
 6923 Fit       0.009652
 6924 Fit       0.011967
 6925 Fit       0.014079
 6926 Fit       0.015743
 6927 Fit       0.008763
 6928 Fit       0.010899
 6929 Fit       0.013026
 6930 Fit       0.015251
 6931 Fit       0.017631
 6932 Fit       0.020107
 6933 Fit       0.022288
 6934 Fit       0.010686
 6935 Fit       0.012447
 6936 Fit       0.014359
 6937 Fit       0.016502
 6938 Fit       0.018980
 6939 Fit       0.021919
 6940 Fit       0.025400
 6941 Fit       0.011044
 6942 Fit       0.012225
 6943 Fit       0.013655
 6944 Fit       0.015333
 6945 Fit       0.017296
 6946 Fit       0.019641
 6947 Fit       0.022526
 6948 Fit       0.026193
 6949 Fit       0.012233
 6950 Fit       0.012823
 6951 Fit       0.013878
 6952 Fit       0.015282
 6953 Fit       0.017007
 6954 Fit       0.019102
 6955 Fit       0.021699
 6956 Fit       0.025035
 6957 Fit       0.029504
 6958 Fit       0.013334
 6959 Fit       0.013970
 6960 Fit       0.015066
 6961 Fit       0.016517
 6962 Fit       0.018315
 6963 Fit       0.020534
 6964 Fit       0.023339
 6965 Fit       0.027027
 6966 Fit       0.032117
 6967 Fit       0.013582
 6968 Fit       0.014001
 6969 Fit       0.014941
 6970 Fit       0.016257
 6971 Fit       0.017911
 6972 Fit       0.019952
 6973 Fit       0.022507
 6974 Fit       0.025819
 6975 Fit       0.030313
 6976 Fit       0.013321
 6977 Fit       0.013961
 6978 Fit       0.015060
 6979 Fit       0.016514
 6980 Fit       0.018315
 6981 Fit       0.020537
 6982 Fit       0.023347
 6983 Fit       0.027045
 6984 Fit       0.032153
 6985 Fit       0.012202
 6986 Fit       0.012802
 6987 Fit       0.013864
 6988 Fit       0.015273
 6989 Fit       0.017002
 6990 Fit       0.019104
 6991 Fit       0.021710
 6992 Fit       0.025060
 6993 Fit       0.029557
 6994 Fit       0.011009
 6995 Fit       0.012201
 6996 Fit       0.013638
 6997 Fit       0.015322
 6998 Fit       0.017293
 6999 Fit       0.019647
 7000 Fit       0.022548
 7001 Fit       0.026241
 7002 Fit       0.010655
 7003 Fit       0.012424
 7004 Fit       0.014344
 7005 Fit       0.016496
 7006 Fit       0.018987
 7007 Fit       0.021945
 7008 Fit       0.025454
 7009 Fit       0.008727
 7010 Fit       0.010872
 7011 Fit       0.013006
 7012 Fit       0.015240
 7013 Fit       0.017632
 7014 Fit       0.020121
 7015 Fit       0.022312
 7016 Fit       0.009621
 7017 Fit       0.011942
 7018 Fit       0.014060
 7019 Fit       0.015726
 7020 Fit       0.022024
 7021 Fit       0.023794
 7022 Fit       0.024267
 7023 Fit       0.025794
 7024 Fit       0.026944
 7025 Fit       0.028015
 7026 Fit       0.026971
 7027 Fit       0.027985
 7028 Fit       0.028806
 7029 Fit       0.029591
 7030 Fit       0.029889
 7031 Fit       0.030344
 7032 Fit       0.030833
 7033 Fit       0.031402
 7034 Fit       0.031456
 7035 Fit       0.031484
 7036 Fit       0.031705
 7037 Fit       0.032018
 7038 Fit       0.032394
 7039 Fit       0.032451
 7040 Fit       0.032364
 7041 Fit       0.032491
 7042 Fit       0.032705
 7043 Fit       0.032929
 7044 Fit       0.032928
 7045 Fit       0.032660
 7046 Fit       0.032698
 7047 Fit       0.032871
 7048 Fit       0.033087
 7049 Fit       0.032464
 7050 Fit       0.032401
 7051 Fit       0.032567
 7052 Fit       0.032852
 7053 Fit       0.033221
 7054 Fit       0.031462
 7055 Fit       0.031530
 7056 Fit       0.031813
 7057 Fit       0.032237
 7058 Fit       0.032832
 7059 Fit       0.029920
 7060 Fit       0.030443
 7061 Fit       0.031048
 7062 Fit       0.031837
 7063 Fit       0.026947
 7064 Fit       0.028015
 7065 Fit       0.028923
 7066 Fit       0.029861
 7067 Fit       0.024219
 7068 Fit       0.025802
 7069 Fit       0.027040
 7070 Fit       0.021941
 7071 Fit       0.023761
 7072 Fit       0.011475
 7073 Fit       0.011096
 7074 Fit       0.012740
 7075 Fit       0.012963
 7076 Fit       0.011783
 7077 Fit       0.010269
 7078 Fit       0.009809
 7079 Fit       0.010646
 7080 Fit       0.012616
 7081 Fit       0.014124
 7082 Fit       0.014661
 7083 Fit       0.014290
 7084 Fit       0.013326
 7085 Fit       0.012019
 7086 Fit       0.010543
 7087 Fit       0.009103
 7088 Fit       0.008063
 7089 Fit       0.007926
 7090 Fit       0.008902
 7091 Fit       0.010112
 7092 Fit       0.012240
 7093 Fit       0.014301
 7094 Fit       0.015745
 7095 Fit       0.016308
 7096 Fit       0.016130
 7097 Fit       0.015472
 7098 Fit       0.014534
 7099 Fit       0.013423
 7100 Fit       0.012188
 7101 Fit       0.010853
 7102 Fit       0.009437
 7103 Fit       0.007995
 7104 Fit       0.006680
 7105 Fit       0.005804
 7106 Fit       0.005749
 7107 Fit       0.006653
 7108 Fit       0.008218
 7109 Fit       0.014368
 7110 Fit       0.016638
 7111 Fit       0.017944
 7112 Fit       0.018262
 7113 Fit       0.017892
 7114 Fit       0.017137
 7115 Fit       0.016192
 7116 Fit       0.015152
 7117 Fit       0.014053
 7118 Fit       0.012900
 7119 Fit       0.011688
 7120 Fit       0.010403
 7121 Fit       0.009022
 7122 Fit       0.007527
 7123 Fit       0.005944
 7124 Fit       0.020058
 7125 Fit       0.020829
 7126 Fit       0.020533
 7127 Fit       0.019674
 7128 Fit       0.018591
 7129 Fit       0.017450
 7130 Fit       0.016313
 7131 Fit       0.015192
 7132 Fit       0.014077
 7133 Fit       0.012952
 7134 Fit       0.011800
 7135 Fit       0.010600
 7136 Fit       0.009315
 7137 Fit       0.007889
 7138 Fit       0.024322
 7139 Fit       0.023121
 7140 Fit       0.021623
 7141 Fit       0.020121
 7142 Fit       0.018720
 7143 Fit       0.017434
 7144 Fit       0.016244
 7145 Fit       0.015121
 7146 Fit       0.014040
 7147 Fit       0.012978
 7148 Fit       0.011919
 7149 Fit       0.010845
 7150 Fit       0.009728
 7151 Fit       0.027426
 7152 Fit       0.024900
 7153 Fit       0.022630
 7154 Fit       0.020686
 7155 Fit       0.019032
 7156 Fit       0.017602
 7157 Fit       0.016332
 7158 Fit       0.015172
 7159 Fit       0.014085
 7160 Fit       0.013048
 7161 Fit       0.012045
 7162 Fit       0.029504
 7163 Fit       0.025973
 7164 Fit       0.023189
 7165 Fit       0.020978
 7166 Fit       0.019182
 7167 Fit       0.017678
 7168 Fit       0.016376
 7169 Fit       0.015215
 7170 Fit       0.014153
 7171 Fit       0.013168
 7172 Fit       0.029324
 7173 Fit       0.025509
 7174 Fit       0.022660
 7175 Fit       0.020458
 7176 Fit       0.018695
 7177 Fit       0.017228
 7178 Fit       0.015968
 7179 Fit       0.030016
 7180 Fit       0.025845
 7181 Fit       0.022833
 7182 Fit       0.020554
 7183 Fit       0.018756
 7184 Fit       0.017282
 7185 Fit       0.029395
 7186 Fit       0.025629
 7187 Fit       0.022818
 7188 Fit       0.020640
 7189 Fit       0.018887
 7190 Fit       0.017427
 7191 Fit       0.016172
 7192 Fit       0.015071
 7193 Fit       0.030021
 7194 Fit       0.026363
 7195 Fit       0.023525
 7196 Fit       0.021284
 7197 Fit       0.019464
 7198 Fit       0.017937
 7199 Fit       0.016614
 7200 Fit       0.015439
 7201 Fit       0.014377
 7202 Fit       0.013416
 7203 Fit       0.028361
 7204 Fit       0.025550
 7205 Fit       0.023128
 7206 Fit       0.021095
 7207 Fit       0.019378
 7208 Fit       0.017898
 7209 Fit       0.016587
 7210 Fit       0.015397
 7211 Fit       0.014296
 7212 Fit       0.013270
 7213 Fit       0.012322
 7214 Fit       0.025499
 7215 Fit       0.023960
 7216 Fit       0.022247
 7217 Fit       0.020608
 7218 Fit       0.019111
 7219 Fit       0.017752
 7220 Fit       0.016505
 7221 Fit       0.015338
 7222 Fit       0.014231
 7223 Fit       0.013168
 7224 Fit       0.012148
 7225 Fit       0.011172
 7226 Fit       0.021388
 7227 Fit       0.021888
 7228 Fit       0.021332
 7229 Fit       0.020277
 7230 Fit       0.019052
 7231 Fit       0.017807
 7232 Fit       0.016590
 7233 Fit       0.015408
 7234 Fit       0.014251
 7235 Fit       0.013112
 7236 Fit       0.011986
 7237 Fit       0.010863
 7238 Fit       0.009720
 7239 Fit       0.015268
 7240 Fit       0.017601
 7241 Fit       0.018804
 7242 Fit       0.018955
 7243 Fit       0.018425
 7244 Fit       0.017540
 7245 Fit       0.016493
 7246 Fit       0.015375
 7247 Fit       0.014221
 7248 Fit       0.013041
 7249 Fit       0.011840
 7250 Fit       0.010612
 7251 Fit       0.009336
 7252 Fit       0.010734
 7253 Fit       0.012875
 7254 Fit       0.014982
 7255 Fit       0.016389
 7256 Fit       0.016844
 7257 Fit       0.016541
 7258 Fit       0.015773
 7259 Fit       0.014747
 7260 Fit       0.013578
 7261 Fit       0.012321
 7262 Fit       0.011009
 7263 Fit       0.009661
 7264 Fit       0.008321
 7265 Fit       0.008939
 7266 Fit       0.011150
 7267 Fit       0.013117
 7268 Fit       0.014593
 7269 Fit       0.015039
 7270 Fit       0.014561
 7271 Fit       0.013513
 7272 Fit       0.012168
 7273 Fit       0.010714
 7274 Fit       0.009352
 7275 Fit       0.008426
 7276 Fit       0.008402
 7277 Fit       0.009423
 7278 Fit       0.011473
 7279 Fit       0.013087
 7280 Fit       0.013218
 7281 Fit       0.011977
 7282 Fit       0.010505
 7283 Fit       0.010144
 7284 Fit       0.011745
 7285 Fit       0.004112
 7286 Fit       0.001523
 7287 Fit      -0.001543
 7288 Fit       0.006114
 7289 Fit       0.004171
 7290 Fit       0.001825
 7291 Fit      -0.001116
 7292 Fit      -0.004797
 7293 Fit      -0.009251
 7294 Fit       0.008234
 7295 Fit       0.006754
 7296 Fit       0.005117
 7297 Fit       0.003136
 7298 Fit       0.000628
 7299 Fit      -0.002610
 7300 Fit      -0.006817
 7301 Fit      -0.012268
 7302 Fit       0.008542
 7303 Fit       0.007301
 7304 Fit       0.005929
 7305 Fit       0.004284
 7306 Fit       0.002219
 7307 Fit      -0.000433
 7308 Fit      -0.003889
 7309 Fit      -0.008448
 7310 Fit      -0.014552
 7311 Fit       0.008755
 7312 Fit       0.007633
 7313 Fit       0.006383
 7314 Fit       0.004877
 7315 Fit       0.002980
 7316 Fit       0.000535
 7317 Fit      -0.002663
 7318 Fit      -0.006911
 7319 Fit      -0.012674
 7320 Fit       0.009923
 7321 Fit       0.008904
 7322 Fit       0.007882
 7323 Fit       0.006741
 7324 Fit       0.005371
 7325 Fit       0.003655
 7326 Fit       0.001457
 7327 Fit      -0.001398
 7328 Fit      -0.005162
 7329 Fit      -0.010220
 7330 Fit      -0.017221
 7331 Fit       0.009441
 7332 Fit       0.008484
 7333 Fit       0.007467
 7334 Fit       0.006286
 7335 Fit       0.004837
 7336 Fit       0.003006
 7337 Fit       0.000655
 7338 Fit      -0.002403
 7339 Fit      -0.006438
 7340 Fit      -0.011882
 7341 Fit       0.009904
 7342 Fit       0.008913
 7343 Fit       0.007915
 7344 Fit       0.006796
 7345 Fit       0.005445
 7346 Fit       0.003750
 7347 Fit       0.001576
 7348 Fit      -0.001248
 7349 Fit      -0.004963
 7350 Fit      -0.009942
 7351 Fit      -0.016799
 7352 Fit       0.009826
 7353 Fit       0.008762
 7354 Fit       0.007693
 7355 Fit       0.006488
 7356 Fit       0.005023
 7357 Fit       0.003170
 7358 Fit       0.000778
 7359 Fit      -0.002347
 7360 Fit      -0.006481
 7361 Fit      -0.012049
 7362 Fit       0.009680
 7363 Fit       0.008523
 7364 Fit       0.007368
 7365 Fit       0.006069
 7366 Fit       0.004490
 7367 Fit       0.002495
 7368 Fit      -0.000072
 7369 Fit      -0.003407
 7370 Fit      -0.007777
 7371 Fit      -0.013555
 7372 Fit       0.008156
 7373 Fit       0.006811
 7374 Fit       0.005283
 7375 Fit       0.003401
 7376 Fit       0.001000
 7377 Fit      -0.002098
 7378 Fit      -0.006096
 7379 Fit      -0.011205
 7380 Fit       0.007694
 7381 Fit       0.006128
 7382 Fit       0.004336
 7383 Fit       0.002126
 7384 Fit      -0.000664
 7385 Fit      -0.004148
 7386 Fit      -0.008313
 7387 Fit       0.006173
 7388 Fit       0.004160
 7389 Fit       0.001751
 7390 Fit      -0.001143
 7391 Fit      -0.004342
 7392 Fit       0.002580
 7393 Fit       0.000260
 7394 Fit      -0.001770
 7395 Fit      -0.004439
 7396 Fit       0.002689
 7397 Fit       0.001507
 7398 Fit      -0.000029
 7399 Fit      -0.002114
 7400 Fit      -0.004930
 7401 Fit      -0.008629
 7402 Fit       0.003356
 7403 Fit       0.002409
 7404 Fit       0.001182
 7405 Fit      -0.000491
 7406 Fit      -0.002793
 7407 Fit      -0.005949
 7408 Fit      -0.010240
 7409 Fit       0.004550
 7410 Fit       0.003878
 7411 Fit       0.003120
 7412 Fit       0.002145
 7413 Fit       0.000825
 7414 Fit      -0.000984
 7415 Fit      -0.003462
 7416 Fit      -0.006866
 7417 Fit      -0.011575
 7418 Fit       0.004806
 7419 Fit       0.004223
 7420 Fit       0.003556
 7421 Fit       0.002689
 7422 Fit       0.001506
 7423 Fit      -0.000126
 7424 Fit      -0.002373
 7425 Fit      -0.005480
 7426 Fit      -0.009826
 7427 Fit       0.004962
 7428 Fit       0.004443
 7429 Fit       0.003847
 7430 Fit       0.003073
 7431 Fit       0.002020
 7432 Fit       0.000574
 7433 Fit      -0.001410
 7434 Fit      -0.004135
 7435 Fit      -0.007918
 7436 Fit      -0.013295
 7437 Fit       0.005014
 7438 Fit       0.004520
 7439 Fit       0.003953
 7440 Fit       0.003219
 7441 Fit       0.002225
 7442 Fit       0.000866
 7443 Fit      -0.000991
 7444 Fit      -0.003530
 7445 Fit      -0.007030
 7446 Fit      -0.011962
 7447 Fit       0.004961
 7448 Fit       0.004442
 7449 Fit       0.003845
 7450 Fit       0.003071
 7451 Fit       0.002018
 7452 Fit       0.000571
 7453 Fit      -0.001413
 7454 Fit      -0.004139
 7455 Fit      -0.007923
 7456 Fit      -0.013301
 7457 Fit       0.004804
 7458 Fit       0.004221
 7459 Fit       0.003553
 7460 Fit       0.002685
 7461 Fit       0.001501
 7462 Fit      -0.000130
 7463 Fit      -0.002379
 7464 Fit      -0.005487
 7465 Fit      -0.009836
 7466 Fit       0.004547
 7467 Fit       0.003874
 7468 Fit       0.003115
 7469 Fit       0.002139
 7470 Fit       0.000819
 7471 Fit      -0.000991
 7472 Fit      -0.003472
 7473 Fit      -0.006878
 7474 Fit      -0.011590
 7475 Fit       0.003350
 7476 Fit       0.002402
 7477 Fit       0.001175
 7478 Fit      -0.000500
 7479 Fit      -0.002804
 7480 Fit      -0.005962
 7481 Fit      -0.010258
 7482 Fit       0.002682
 7483 Fit       0.001498
 7484 Fit      -0.000039
 7485 Fit      -0.002126
 7486 Fit      -0.004945
 7487 Fit      -0.008648
 7488 Fit       0.000250
 7489 Fit      -0.001783
 7490 Fit      -0.004454
 -----------------------------------------------------------------
 Leave Link  602 at Thu Jun 16 11:37:51 2016, MaxMem=   33554432 cpu:       2.6

 Test job not archived.
 1\1\GINC-NODE33\FOpt\RHF\6-31G(d)\C10H10N2O1S1\DAVE\16-Jun-2016\0\\#HF
 /6-31G* SCF=tight Test Pop=MK iop(6/33=2) iop(6/42=6) opt\\remark line
  goes here\\0,1\C,1.0668332309,6.8843736225,13.0664288093\C,-0.3007030
 713,6.8585161399,13.7185826348\O,-0.5603090223,6.121738184,14.62537910
 76\N,-1.1860840433,7.7398086116,13.1688300927\C,-2.5324665842,7.975188
 072,13.5084138599\C,-3.2049981431,8.9513278513,12.7548330345\C,-4.5201
 709624,9.2647599544,12.9973706051\C,-5.1974622235,8.5981661988,14.0128
 995297\C,-4.5219931846,7.6347211242,14.7516445353\C,-3.1925136811,7.30
 31755506,14.5224345167\S,-5.6179450912,6.9775645215,15.94170086\C,-6.8
 695486828,8.0597087547,15.3292923001\N,-6.5221394767,8.8099210523,14.3
 690300229\C,-8.2390981751,8.0568461099,15.9366564241\H,-8.700497006,7.
 0791641759,15.8460088183\H,-8.1954466851,8.3086927847,16.990997277\H,-
 2.691669211,6.5588853018,15.1024539682\H,-5.0276990743,10.0123841067,1
 2.4168172668\H,-2.6773167652,9.4650388634,11.9696302943\H,-0.841651497
 1,8.2947579858,12.4189723672\H,0.9989763111,6.5605881465,12.0324475067
 \H,1.4869079786,7.8849526364,13.0799855699\H,1.7192426156,6.2144690715
 ,13.6056928961\H,-8.849247556,8.7862511794,15.4224977027\\Version=EM64
 L-G09RevC.01\State=1-A\HF=-965.8126903\RMSD=5.208e-09\RMSF=6.901e-06\D
 ipole=0.5063381,0.6355875,-0.9204512\Quadrupole=7.8417754,-7.931818,0.
 0900426,5.6422249,-12.5234989,-0.9855926\PG=C01 [X(C10H10N2O1S1)]\\@


 THIS CURIOUS WORLD WHICH WE INHABIT IS MORE WONDERFUL THAN IT IS CONVENIENT;
 MORE BEAUTIFUL THAN IT IS USEFUL;
 IT IS MORE TO BE ADMIRED THAN IT IS TO BE USED.

                                                                 -- THOREAU
 Job cpu time:  0 days  0 hours 29 minutes 34.6 seconds.
 File lengths (MBytes):  RWF=     47 Int=      0 D2E=      0 Chk=      6 Scr=      1
 Normal termination of Gaussian 09 at Thu Jun 16 11:37:51 2016.
