 Entering Gaussian System, Link 0=/usr/local/g09_c01/g09
 Initial command:
 /usr/local/g09_c01/l1.exe /scr/gf/dave/80830/Gau-10238.inp -scrdir=/scr/gf/dave/80830/
 Entering Link 1 = /usr/local/g09_c01/l1.exe PID=     10240.
  
 Copyright (c) 1988,1990,1992,1993,1995,1998,2003,2009,2011,
            Gaussian, Inc.  All Rights Reserved.
  
 This is part of the Gaussian(R) 09 program.  It is based on
 the Gaussian(R) 03 system (copyright 2003, Gaussian, Inc.),
 the Gaussian(R) 98 system (copyright 1998, Gaussian, Inc.),
 the Gaussian(R) 94 system (copyright 1995, Gaussian, Inc.),
 the Gaussian 92(TM) system (copyright 1992, Gaussian, Inc.),
 the Gaussian 90(TM) system (copyright 1990, Gaussian, Inc.),
 the Gaussian 88(TM) system (copyright 1988, Gaussian, Inc.),
 the Gaussian 86(TM) system (copyright 1986, Carnegie Mellon
 University), and the Gaussian 82(TM) system (copyright 1983,
 Carnegie Mellon University). Gaussian is a federally registered
 trademark of Gaussian, Inc.
  
 This software contains proprietary and confidential information,
 including trade secrets, belonging to Gaussian, Inc.
  
 This software is provided under written license and may be
 used, copied, transmitted, or stored only in accord with that
 written license.
  
 The following legend is applicable only to US Government
 contracts under FAR:
  
                    RESTRICTED RIGHTS LEGEND
  
 Use, reproduction and disclosure by the US Government is
 subject to restrictions as set forth in subparagraphs (a)
 and (c) of the Commercial Computer Software - Restricted
 Rights clause in FAR 52.227-19.
  
 Gaussian, Inc.
 340 Quinnipiac St., Bldg. 40, Wallingford CT 06492
  
  
 ---------------------------------------------------------------
 Warning -- This program may not be used in any manner that
 competes with the business of Gaussian, Inc. or will provide
 assistance to any competitor of Gaussian, Inc.  The licensee
 of this program is prohibited from giving any competitor of
 Gaussian, Inc. access to this program.  By using this program,
 the user acknowledges that Gaussian, Inc. is engaged in the
 business of creating and licensing software in the field of
 computational chemistry and represents and warrants to the
 licensee that it is not a competitor of Gaussian, Inc. and that
 it will not use this program in any manner prohibited above.
 ---------------------------------------------------------------
  

 Cite this work as:
 Gaussian 09, Revision C.01,
 M. J. Frisch, G. W. Trucks, H. B. Schlegel, G. E. Scuseria, 
 M. A. Robb, J. R. Cheeseman, G. Scalmani, V. Barone, B. Mennucci, 
 G. A. Petersson, H. Nakatsuji, M. Caricato, X. Li, H. P. Hratchian, 
 A. F. Izmaylov, J. Bloino, G. Zheng, J. L. Sonnenberg, M. Hada, 
 M. Ehara, K. Toyota, R. Fukuda, J. Hasegawa, M. Ishida, T. Nakajima, 
 Y. Honda, O. Kitao, H. Nakai, T. Vreven, J. A. Montgomery, Jr., 
 J. E. Peralta, F. Ogliaro, M. Bearpark, J. J. Heyd, E. Brothers, 
 K. N. Kudin, V. N. Staroverov, T. Keith, R. Kobayashi, J. Normand, 
 K. Raghavachari, A. Rendell, J. C. Burant, S. S. Iyengar, J. Tomasi, 
 M. Cossi, N. Rega, J. M. Millam, M. Klene, J. E. Knox, J. B. Cross, 
 V. Bakken, C. Adamo, J. Jaramillo, R. Gomperts, R. E. Stratmann, 
 O. Yazyev, A. J. Austin, R. Cammi, C. Pomelli, J. W. Ochterski, 
 R. L. Martin, K. Morokuma, V. G. Zakrzewski, G. A. Voth, 
 P. Salvador, J. J. Dannenberg, S. Dapprich, A. D. Daniels, 
 O. Farkas, J. B. Foresman, J. V. Ortiz, J. Cioslowski, 
 and D. J. Fox, Gaussian, Inc., Wallingford CT, 2010.
 
 ******************************************
 Gaussian 09:  EM64L-G09RevC.01 23-Sep-2011
                16-Jun-2016 
 ******************************************
 %chk=molecule
 ------------------------------------------------------------
 #HF/6-31G* SCF=tight Test Pop=MK iop(6/33=2) iop(6/42=6) opt
 ------------------------------------------------------------
 1/18=20,19=15,38=1/1,3;
 2/9=110,12=2,17=6,18=5,40=1/2;
 3/5=1,6=6,7=1,11=9,16=1,25=1,30=1,71=1/1,2,3;
 4//1;
 5/5=2,32=2,38=5/2;
 6/7=2,8=2,9=2,10=2,15=8,20=1,28=1,33=2,42=6/1,2;
 7//1,2,3,16;
 1/18=20,19=15/3(2);
 2/9=110/2;
 99//99;
 2/9=110/2;
 3/5=1,6=6,7=1,11=9,16=1,25=1,30=1,71=1/1,2,3;
 4/5=5,16=3/1;
 5/5=2,32=2,38=5/2;
 7//1,2,3,16;
 1/18=20,19=15/3(-5);
 2/9=110/2;
 6/7=2,8=2,9=2,10=2,15=8,19=2,20=1,28=1,33=2,42=6/1,2;
 99/9=1/99;
 ---------------------
 remark line goes here
 ---------------------
 Charge =  0 Multiplicity = 1
 Symbolic Z-Matrix:
 C                    -4.518     9.237     12.885 
 C                    -3.159     8.97      12.794 
 C                    -3.279     7.595     14.786 
 C                    -5.273     8.687     13.922 
 C                    -2.529     8.157     13.736 
 C                    -4.634     7.867     14.855 
 C                    -7.015     8.227     15.176 
 C                    -9.482     8.389     19.876 
 C                    -8.798     8.642     18.519 
 C                    -0.49      6.795     14.032 
 C                     1.893     3.541     13.433 
 C                    -8.649     7.57      17.423 
 C                     0.947     6.724     13.545 
 C                     1.828     5.823     14.381 
 N                    -6.637     8.87      14.13 
 N                     1.315     2.325     13.419 
 N                    -1.148     7.9       13.618 
 N                     1.393     4.422     14.307 
 O                    -1.009     5.908     14.735 
 S                    -5.786     7.32      16.032 
 S                    -8.707     8.224     15.729 
 O                     2.831     3.84      12.668 
 H                     0.687     4.111     14.943 
 H                    -0.59      8.601     13.173 
 H                     0.557     2.124     14.04 
 H                     1.645     1.623     12.787 
 H                    -7.776     8.973     18.756 
 H                    -9.353     9.47      18.054 
 H                     2.863     5.895     14.015 
 H                     1.785     6.154     15.429 
 H                     0.946     6.347     12.511 
 H                     1.371     7.739     13.564 
 H                    -9.465     6.842     17.54 
 H                    -7.683     7.064     17.565 
 H                    -10.526    8.087     19.71 
 H                    -8.949     7.59      20.411 
 H                    -9.458     9.311     20.476 
 H                    -2.804     6.961     15.526 
 H                    -2.581     9.397     11.982 
 H                    -4.994     9.875     12.149 
 

 GradGradGradGradGradGradGradGradGradGradGradGradGradGradGradGradGradGrad
 Berny optimization.
 Initialization pass.
                           ----------------------------
                           !    Initial Parameters    !
                           ! (Angstroms and Degrees)  !
 --------------------------                            --------------------------
 ! Name  Definition              Value          Derivative Info.                !
 --------------------------------------------------------------------------------
 ! R1    R(1,2)                  1.388          estimate D2E/DX2                !
 ! R2    R(1,4)                  1.3957         estimate D2E/DX2                !
 ! R3    R(1,40)                 1.0841         estimate D2E/DX2                !
 ! R4    R(2,5)                  1.3947         estimate D2E/DX2                !
 ! R5    R(2,39)                 1.0843         estimate D2E/DX2                !
 ! R6    R(3,5)                  1.4074         estimate D2E/DX2                !
 ! R7    R(3,6)                  1.3838         estimate D2E/DX2                !
 ! R8    R(3,38)                 1.0841         estimate D2E/DX2                !
 ! R9    R(4,6)                  1.3969         estimate D2E/DX2                !
 ! R10   R(4,15)                 1.3919         estimate D2E/DX2                !
 ! R11   R(5,17)                 1.4097         estimate D2E/DX2                !
 ! R12   R(6,20)                 1.7354         estimate D2E/DX2                !
 ! R13   R(7,15)                 1.2847         estimate D2E/DX2                !
 ! R14   R(7,20)                 1.751          estimate D2E/DX2                !
 ! R15   R(7,21)                 1.7801         estimate D2E/DX2                !
 ! R16   R(8,9)                  1.5406         estimate D2E/DX2                !
 ! R17   R(8,35)                 1.0994         estimate D2E/DX2                !
 ! R18   R(8,36)                 1.0994         estimate D2E/DX2                !
 ! R19   R(8,37)                 1.1003         estimate D2E/DX2                !
 ! R20   R(9,12)                 1.5403         estimate D2E/DX2                !
 ! R21   R(9,27)                 1.1001         estimate D2E/DX2                !
 ! R22   R(9,28)                 1.0999         estimate D2E/DX2                !
 ! R23   R(10,13)                1.5189         estimate D2E/DX2                !
 ! R24   R(10,17)                1.3511         estimate D2E/DX2                !
 ! R25   R(10,19)                1.2451         estimate D2E/DX2                !
 ! R26   R(11,16)                1.3465         estimate D2E/DX2                !
 ! R27   R(11,18)                1.3379         estimate D2E/DX2                !
 ! R28   R(11,22)                1.2468         estimate D2E/DX2                !
 ! R29   R(12,21)                1.8168         estimate D2E/DX2                !
 ! R30   R(12,33)                1.0998         estimate D2E/DX2                !
 ! R31   R(12,34)                1.0997         estimate D2E/DX2                !
 ! R32   R(13,14)                1.5122         estimate D2E/DX2                !
 ! R33   R(13,31)                1.1006         estimate D2E/DX2                !
 ! R34   R(13,32)                1.1002         estimate D2E/DX2                !
 ! R35   R(14,18)                1.4688         estimate D2E/DX2                !
 ! R36   R(14,29)                1.1002         estimate D2E/DX2                !
 ! R37   R(14,30)                1.0999         estimate D2E/DX2                !
 ! R38   R(16,25)                1.0003         estimate D2E/DX2                !
 ! R39   R(16,26)                1.0006         estimate D2E/DX2                !
 ! R40   R(17,24)                1.0004         estimate D2E/DX2                !
 ! R41   R(18,23)                0.9998         estimate D2E/DX2                !
 ! A1    A(2,1,4)              120.1706         estimate D2E/DX2                !
 ! A2    A(2,1,40)             119.9074         estimate D2E/DX2                !
 ! A3    A(4,1,40)             119.922          estimate D2E/DX2                !
 ! A4    A(1,2,5)              120.6725         estimate D2E/DX2                !
 ! A5    A(1,2,39)             119.6876         estimate D2E/DX2                !
 ! A6    A(5,2,39)             119.6399         estimate D2E/DX2                !
 ! A7    A(5,3,6)              118.7197         estimate D2E/DX2                !
 ! A8    A(5,3,38)             120.6174         estimate D2E/DX2                !
 ! A9    A(6,3,38)             120.6629         estimate D2E/DX2                !
 ! A10   A(1,4,6)              118.6952         estimate D2E/DX2                !
 ! A11   A(1,4,15)             126.1115         estimate D2E/DX2                !
 ! A12   A(6,4,15)             115.193          estimate D2E/DX2                !
 ! A13   A(2,5,3)              119.7316         estimate D2E/DX2                !
 ! A14   A(2,5,17)             119.4891         estimate D2E/DX2                !
 ! A15   A(3,5,17)             120.7775         estimate D2E/DX2                !
 ! A16   A(3,6,4)              122.0079         estimate D2E/DX2                !
 ! A17   A(3,6,20)             128.4542         estimate D2E/DX2                !
 ! A18   A(4,6,20)             109.5343         estimate D2E/DX2                !
 ! A19   A(15,7,20)            116.7941         estimate D2E/DX2                !
 ! A20   A(15,7,21)            122.2393         estimate D2E/DX2                !
 ! A21   A(20,7,21)            120.9591         estimate D2E/DX2                !
 ! A22   A(9,8,35)             109.4954         estimate D2E/DX2                !
 ! A23   A(9,8,36)             109.4353         estimate D2E/DX2                !
 ! A24   A(9,8,37)             109.4531         estimate D2E/DX2                !
 ! A25   A(35,8,36)            109.5246         estimate D2E/DX2                !
 ! A26   A(35,8,37)            109.4649         estimate D2E/DX2                !
 ! A27   A(36,8,37)            109.454          estimate D2E/DX2                !
 ! A28   A(8,9,12)             123.7392         estimate D2E/DX2                !
 ! A29   A(8,9,27)             105.7906         estimate D2E/DX2                !
 ! A30   A(8,9,28)             105.7821         estimate D2E/DX2                !
 ! A31   A(12,9,27)            105.8325         estimate D2E/DX2                !
 ! A32   A(12,9,28)            105.7776         estimate D2E/DX2                !
 ! A33   A(27,9,28)            109.4715         estimate D2E/DX2                !
 ! A34   A(13,10,17)           113.6241         estimate D2E/DX2                !
 ! A35   A(13,10,19)           122.8241         estimate D2E/DX2                !
 ! A36   A(17,10,19)           123.5482         estimate D2E/DX2                !
 ! A37   A(16,11,18)           116.171          estimate D2E/DX2                !
 ! A38   A(16,11,22)           122.2193         estimate D2E/DX2                !
 ! A39   A(18,11,22)           121.6052         estimate D2E/DX2                !
 ! A40   A(9,12,21)            114.1943         estimate D2E/DX2                !
 ! A41   A(9,12,33)            108.2533         estimate D2E/DX2                !
 ! A42   A(9,12,34)            108.2594         estimate D2E/DX2                !
 ! A43   A(21,12,33)           108.2879         estimate D2E/DX2                !
 ! A44   A(21,12,34)           108.3049         estimate D2E/DX2                !
 ! A45   A(33,12,34)           109.4776         estimate D2E/DX2                !
 ! A46   A(10,13,14)           113.6881         estimate D2E/DX2                !
 ! A47   A(10,13,31)           108.4437         estimate D2E/DX2                !
 ! A48   A(10,13,32)           108.4178         estimate D2E/DX2                !
 ! A49   A(14,13,31)           108.4101         estimate D2E/DX2                !
 ! A50   A(14,13,32)           108.3978         estimate D2E/DX2                !
 ! A51   A(31,13,32)           109.4269         estimate D2E/DX2                !
 ! A52   A(13,14,18)           111.5864         estimate D2E/DX2                !
 ! A53   A(13,14,29)           108.9758         estimate D2E/DX2                !
 ! A54   A(13,14,30)           108.9457         estimate D2E/DX2                !
 ! A55   A(18,14,29)           108.9214         estimate D2E/DX2                !
 ! A56   A(18,14,30)           108.8729         estimate D2E/DX2                !
 ! A57   A(29,14,30)           109.5162         estimate D2E/DX2                !
 ! A58   A(4,15,7)             110.1338         estimate D2E/DX2                !
 ! A59   A(11,16,25)           120.0204         estimate D2E/DX2                !
 ! A60   A(11,16,26)           119.9084         estimate D2E/DX2                !
 ! A61   A(25,16,26)           120.0712         estimate D2E/DX2                !
 ! A62   A(5,17,10)            126.9115         estimate D2E/DX2                !
 ! A63   A(5,17,24)            117.1244         estimate D2E/DX2                !
 ! A64   A(10,17,24)           115.9608         estimate D2E/DX2                !
 ! A65   A(11,18,14)           123.3879         estimate D2E/DX2                !
 ! A66   A(11,18,23)           118.3336         estimate D2E/DX2                !
 ! A67   A(14,18,23)           118.2786         estimate D2E/DX2                !
 ! A68   A(6,20,7)              88.3436         estimate D2E/DX2                !
 ! A69   A(7,21,12)            105.0657         estimate D2E/DX2                !
 ! D1    D(4,1,2,5)             -0.2871         estimate D2E/DX2                !
 ! D2    D(4,1,2,39)           179.665          estimate D2E/DX2                !
 ! D3    D(40,1,2,5)           179.6699         estimate D2E/DX2                !
 ! D4    D(40,1,2,39)           -0.378          estimate D2E/DX2                !
 ! D5    D(2,1,4,6)             -0.1373         estimate D2E/DX2                !
 ! D6    D(2,1,4,15)          -179.9025         estimate D2E/DX2                !
 ! D7    D(40,1,4,6)           179.9057         estimate D2E/DX2                !
 ! D8    D(40,1,4,15)            0.1405         estimate D2E/DX2                !
 ! D9    D(1,2,5,3)              0.3467         estimate D2E/DX2                !
 ! D10   D(1,2,5,17)           179.8667         estimate D2E/DX2                !
 ! D11   D(39,2,5,3)          -179.6054         estimate D2E/DX2                !
 ! D12   D(39,2,5,17)           -0.0854         estimate D2E/DX2                !
 ! D13   D(6,3,5,2)              0.0209         estimate D2E/DX2                !
 ! D14   D(6,3,5,17)          -179.4928         estimate D2E/DX2                !
 ! D15   D(38,3,5,2)           179.9973         estimate D2E/DX2                !
 ! D16   D(38,3,5,17)            0.4836         estimate D2E/DX2                !
 ! D17   D(5,3,6,4)             -0.4566         estimate D2E/DX2                !
 ! D18   D(5,3,6,20)          -179.6844         estimate D2E/DX2                !
 ! D19   D(38,3,6,4)           179.567          estimate D2E/DX2                !
 ! D20   D(38,3,6,20)            0.3392         estimate D2E/DX2                !
 ! D21   D(1,4,6,3)              0.5164         estimate D2E/DX2                !
 ! D22   D(1,4,6,20)           179.8748         estimate D2E/DX2                !
 ! D23   D(15,4,6,3)          -179.6933         estimate D2E/DX2                !
 ! D24   D(15,4,6,20)           -0.3349         estimate D2E/DX2                !
 ! D25   D(1,4,15,7)          -179.8267         estimate D2E/DX2                !
 ! D26   D(6,4,15,7)             0.401          estimate D2E/DX2                !
 ! D27   D(2,5,17,10)         -150.8884         estimate D2E/DX2                !
 ! D28   D(2,5,17,24)           28.4153         estimate D2E/DX2                !
 ! D29   D(3,5,17,10)           28.6265         estimate D2E/DX2                !
 ! D30   D(3,5,17,24)         -152.0699         estimate D2E/DX2                !
 ! D31   D(3,6,20,7)           179.4447         estimate D2E/DX2                !
 ! D32   D(4,6,20,7)             0.1395         estimate D2E/DX2                !
 ! D33   D(20,7,15,4)           -0.2872         estimate D2E/DX2                !
 ! D34   D(21,7,15,4)         -179.2983         estimate D2E/DX2                !
 ! D35   D(15,7,20,6)            0.0886         estimate D2E/DX2                !
 ! D36   D(21,7,20,6)          179.1132         estimate D2E/DX2                !
 ! D37   D(15,7,21,12)        -165.6549         estimate D2E/DX2                !
 ! D38   D(20,7,21,12)          15.3744         estimate D2E/DX2                !
 ! D39   D(35,8,9,12)          -59.9863         estimate D2E/DX2                !
 ! D40   D(35,8,9,27)          178.0197         estimate D2E/DX2                !
 ! D41   D(35,8,9,28)           61.9217         estimate D2E/DX2                !
 ! D42   D(36,8,9,12)           60.0719         estimate D2E/DX2                !
 ! D43   D(36,8,9,27)          -61.9221         estimate D2E/DX2                !
 ! D44   D(36,8,9,28)         -178.0201         estimate D2E/DX2                !
 ! D45   D(37,8,9,12)         -179.9823         estimate D2E/DX2                !
 ! D46   D(37,8,9,27)           58.0238         estimate D2E/DX2                !
 ! D47   D(37,8,9,28)          -58.0743         estimate D2E/DX2                !
 ! D48   D(8,9,12,21)          147.3454         estimate D2E/DX2                !
 ! D49   D(8,9,12,33)           26.6534         estimate D2E/DX2                !
 ! D50   D(8,9,12,34)          -91.9366         estimate D2E/DX2                !
 ! D51   D(27,9,12,21)         -90.6797         estimate D2E/DX2                !
 ! D52   D(27,9,12,33)         148.6283         estimate D2E/DX2                !
 ! D53   D(27,9,12,34)          30.0384         estimate D2E/DX2                !
 ! D54   D(28,9,12,21)          25.4353         estimate D2E/DX2                !
 ! D55   D(28,9,12,33)         -95.2567         estimate D2E/DX2                !
 ! D56   D(28,9,12,34)         146.1534         estimate D2E/DX2                !
 ! D57   D(17,10,13,14)        158.2778         estimate D2E/DX2                !
 ! D58   D(17,10,13,31)        -81.0674         estimate D2E/DX2                !
 ! D59   D(17,10,13,32)         37.6571         estimate D2E/DX2                !
 ! D60   D(19,10,13,14)        -22.393          estimate D2E/DX2                !
 ! D61   D(19,10,13,31)         98.2617         estimate D2E/DX2                !
 ! D62   D(19,10,13,32)       -143.0138         estimate D2E/DX2                !
 ! D63   D(13,10,17,5)         170.0369         estimate D2E/DX2                !
 ! D64   D(13,10,17,24)         -9.2738         estimate D2E/DX2                !
 ! D65   D(19,10,17,5)          -9.2866         estimate D2E/DX2                !
 ! D66   D(19,10,17,24)        171.4027         estimate D2E/DX2                !
 ! D67   D(18,11,16,25)         -0.0204         estimate D2E/DX2                !
 ! D68   D(18,11,16,26)       -179.9954         estimate D2E/DX2                !
 ! D69   D(22,11,16,25)       -179.2648         estimate D2E/DX2                !
 ! D70   D(22,11,16,26)          0.7602         estimate D2E/DX2                !
 ! D71   D(16,11,18,14)       -174.8516         estimate D2E/DX2                !
 ! D72   D(16,11,18,23)          5.1702         estimate D2E/DX2                !
 ! D73   D(22,11,18,14)          4.3978         estimate D2E/DX2                !
 ! D74   D(22,11,18,23)       -175.5804         estimate D2E/DX2                !
 ! D75   D(9,12,21,7)          103.4781         estimate D2E/DX2                !
 ! D76   D(33,12,21,7)        -135.8492         estimate D2E/DX2                !
 ! D77   D(34,12,21,7)         -17.2146         estimate D2E/DX2                !
 ! D78   D(10,13,14,18)         64.4509         estimate D2E/DX2                !
 ! D79   D(10,13,14,29)       -175.2298         estimate D2E/DX2                !
 ! D80   D(10,13,14,30)        -55.788          estimate D2E/DX2                !
 ! D81   D(31,13,14,18)        -56.2227         estimate D2E/DX2                !
 ! D82   D(31,13,14,29)         64.0966         estimate D2E/DX2                !
 ! D83   D(31,13,14,30)       -176.4616         estimate D2E/DX2                !
 ! D84   D(32,13,14,18)       -174.9171         estimate D2E/DX2                !
 ! D85   D(32,13,14,29)        -54.5978         estimate D2E/DX2                !
 ! D86   D(32,13,14,30)         64.844          estimate D2E/DX2                !
 ! D87   D(13,14,18,11)         93.4303         estimate D2E/DX2                !
 ! D88   D(13,14,18,23)        -86.5915         estimate D2E/DX2                !
 ! D89   D(29,14,18,11)        -26.9209         estimate D2E/DX2                !
 ! D90   D(29,14,18,23)        153.0573         estimate D2E/DX2                !
 ! D91   D(30,14,18,11)       -146.288          estimate D2E/DX2                !
 ! D92   D(30,14,18,23)         33.6902         estimate D2E/DX2                !
 --------------------------------------------------------------------------------
 Trust Radius=3.00D-01 FncErr=1.00D-07 GrdErr=1.00D-07
 Number of steps in this run=    212 maximum allowed number of steps=    240.
 GradGradGradGradGradGradGradGradGradGradGradGradGradGradGradGradGradGrad

                          Input orientation:                          
 ---------------------------------------------------------------------
 Center     Atomic      Atomic             Coordinates (Angstroms)
 Number     Number       Type             X           Y           Z
 ---------------------------------------------------------------------
      1          6           0       -4.518000    9.237000   12.885000
      2          6           0       -3.159000    8.970000   12.794000
      3          6           0       -3.279000    7.595000   14.786000
      4          6           0       -5.273000    8.687000   13.922000
      5          6           0       -2.529000    8.157000   13.736000
      6          6           0       -4.634000    7.867000   14.855000
      7          6           0       -7.015000    8.227000   15.176000
      8          6           0       -9.482000    8.389000   19.876000
      9          6           0       -8.798000    8.642000   18.519000
     10          6           0       -0.490000    6.795000   14.032000
     11          6           0        1.893000    3.541000   13.433000
     12          6           0       -8.649000    7.570000   17.423000
     13          6           0        0.947000    6.724000   13.545000
     14          6           0        1.828000    5.823000   14.381000
     15          7           0       -6.637000    8.870000   14.130000
     16          7           0        1.315000    2.325000   13.419000
     17          7           0       -1.148000    7.900000   13.618000
     18          7           0        1.393000    4.422000   14.307000
     19          8           0       -1.009000    5.908000   14.735000
     20         16           0       -5.786000    7.320000   16.032000
     21         16           0       -8.707000    8.224000   15.729000
     22          8           0        2.831000    3.840000   12.668000
     23          1           0        0.687000    4.111000   14.943000
     24          1           0       -0.590000    8.601000   13.173000
     25          1           0        0.557000    2.124000   14.040000
     26          1           0        1.645000    1.623000   12.787000
     27          1           0       -7.776000    8.973000   18.756000
     28          1           0       -9.353000    9.470000   18.054000
     29          1           0        2.863000    5.895000   14.015000
     30          1           0        1.785000    6.154000   15.429000
     31          1           0        0.946000    6.347000   12.511000
     32          1           0        1.371000    7.739000   13.564000
     33          1           0       -9.465000    6.842000   17.540000
     34          1           0       -7.683000    7.064000   17.565000
     35          1           0      -10.526000    8.087000   19.710000
     36          1           0       -8.949000    7.590000   20.411000
     37          1           0       -9.458000    9.311000   20.476000
     38          1           0       -2.804000    6.961000   15.526000
     39          1           0       -2.581000    9.397000   11.982000
     40          1           0       -4.994000    9.875000   12.149000
 ---------------------------------------------------------------------
                    Distance matrix (angstroms):
                    1          2          3          4          5
     1  C    0.000000
     2  C    1.387966   0.000000
     3  C    2.800908   2.423446   0.000000
     4  C    1.395670   2.412772   2.432076   0.000000
     5  C    2.418000   1.394716   1.407425   2.800898   0.000000
     6  C    2.402344   2.764047   1.383752   1.396857   2.401517
     7  C    3.536070   4.592898   3.809097   2.195149   4.711974
     8  C    8.615943   9.511709   8.063234   7.297575   9.278881
     9  C    7.100309   8.042483   6.744691   5.793104   7.900169
    10  C    4.848067   3.658802   2.997839   5.144789   2.469854
    11  C    8.593349   7.443458   6.709330   8.835836   6.399480
    12  C    6.359048   7.316266   5.982583   4.990197   7.168887
    13  C    6.051198   4.740016   4.489744   6.533292   3.764644
    14  C    7.359696   6.106746   5.420836   7.670553   4.984680
    15  N    2.484930   3.727114   3.651318   1.391851   4.187991
    16  N    9.060066   8.035131   7.123653   9.172230   6.992070
    17  N    3.698886   2.422395   2.449165   4.210393   1.409657
    18  N    7.755400   6.610157   5.667888   7.923005   5.445948
    19  O    5.178593   4.214953   2.828687   5.154174   2.892473
    20  S    3.896963   4.484225   2.813039   2.565922   4.071883
    21  S    5.163548   6.320684   5.545095   3.907937   6.491858
    22  O    9.120444   7.887514   7.477837   9.525793   6.964676
    23  H    7.589681   6.558948   5.281293   7.583127   5.307506
    24  H    3.989564   2.622892   3.293103   4.743299   2.067323
    25  H    8.813877   7.888529   6.723336   8.779282   6.783281
    26  H    9.796181   8.778204   7.994158   9.952238   7.811276
    27  H    6.719591   7.540699   6.154900   5.451088   7.307343
    28  H    7.081672   8.141452   7.147652   5.859429   8.181447
    29  H    8.180772   6.871022   6.419393   8.602233   5.853900
    30  H    7.463554   6.270265   5.304152   7.648693   5.048649
    31  H    6.192517   4.879677   4.958201   6.792826   4.105161
    32  H    6.114357   4.757012   4.810044   6.720834   3.926106
    33  H    7.202629   8.174261   6.813085   5.836678   8.019210
    34  H    6.053227   6.845572   5.234503   4.659794   6.513034
    35  H    9.165107  10.143147   8.775355   7.839321   9.982264
    36  H    8.887466   9.666809   7.986836   7.538137   9.278659
    37  H    9.057172   9.940161   8.573261   7.801187   9.735007
    38  H    3.884952   3.409682   1.084058   3.412895   2.170286
    39  H    2.143123   1.084323   3.405411   3.393312   2.148679
    40  H    1.084120   2.145291   3.885022   2.152374   3.397987
                    6          7          8          9         10
     6  C    0.000000
     7  C    2.429362   0.000000
     8  C    6.999002   5.310587   0.000000
     9  C    5.600394   3.811425   1.540556   0.000000
    10  C    4.358813   6.777535  10.842013   9.621198   0.000000
    11  C    7.958523  10.215141  13.942954  12.891279   4.077500
    12  C    4.775255   2.854928   2.716958   1.540325   8.869543
    13  C    5.845521   8.265145  12.313319  11.107854   1.518940
    14  C    6.794119   9.198363  12.833374  11.746560   2.537658
    15  N    2.354494   1.284698   6.429767   4.897471   6.488516
    16  N    8.256298  10.359032  13.965678  12.968703   4.859495
    17  N    3.699115   6.079143  10.433467   9.115529   1.351068
    18  N    6.963696   9.269717  12.845874  11.807024   3.041783
    19  O    4.122221   6.453238  10.216505   9.080855   1.245126
    20  S    1.735408   1.750950   5.438705   4.123712   5.685353
    21  S    4.180987   1.780079   4.222021   2.822606   8.511224
    22  O    8.759333  11.067048  14.975267  13.875412   4.649899
    23  H    6.513703   8.735934  12.084880  11.103286   3.069056
    24  H    4.440925   6.740364  11.137451   9.795543   2.002378
    25  H    7.784135   9.791440  13.194341  12.249971   4.786911
    26  H    9.093404  11.149697  14.827097  13.826729   5.732175
    27  H    5.129639   3.735243   2.122709   1.100097   8.952411
    28  H    5.922176   3.910777   2.122472   1.099925  10.093804
    29  H    7.797397  10.215725  13.891378  12.798865   3.471728
    30  H    6.668389   9.044409  12.317318  11.302130   2.745563
    31  H    6.240283   8.603147  12.928889  11.675128   2.139215
    32  H    6.143541   8.553460  12.571852  11.347951   2.138570
    33  H    5.621246   3.675489   2.801855   2.154839   9.636332
    34  H    4.157561   2.739729   3.214459   2.154861   8.018335
    35  H    7.637741   5.736190   1.099407   2.170827  11.603027
    36  H    7.040248   5.617059   1.099416   2.170062  10.624422
    37  H    7.546639   5.935765   1.100300   2.170947  11.326094
    38  H    2.149413   4.411097   8.096750   6.907376   2.759382
    39  H    3.848355   5.588461  10.533523   9.052816   3.917293
    40  H    3.388820   3.995382   9.058525   7.521144   5.772184
                   11         12         13         14         15
    11  C    0.000000
    12  C   11.970242   0.000000
    13  C    3.322491  10.384499   0.000000
    14  C    2.471933  11.048679   1.512236   0.000000
    15  N   10.081912   4.072099   7.903455   9.000191   0.000000
    16  N    1.346453  11.950872   4.416164   3.663962  10.323606
    17  N    5.318156   8.417359   2.403608   3.708460   5.597514
    18  N    1.337923  10.975478   2.465515   1.468844   9.181336
    19  O    3.964782   8.267841   2.430616   2.860264   6.388572
    20  S    8.944422   3.192828   7.202338   7.933461   2.596980
    21  S   11.813641   1.816787  10.010973  10.888899   2.694256
    22  O    1.246784  12.973563   3.554721   2.805827  10.820414
    23  H    2.014804  10.260408   2.974857   2.132761   8.772116
    24  H    5.642383   9.169130   2.454360   3.875987   6.128166
    25  H    2.039910  11.218469   4.642965   3.926108   9.862568
    26  H    2.039006  12.760319   5.204034   4.496034  11.086667
    27  H   12.301647   2.123070  10.406885  11.013625   4.765271
    28  H   13.526980   2.122210  11.574178  12.320970   4.809827
    29  H    2.611693  12.122138   2.139906   1.100166   9.955594
    30  H    3.289901  10.716783   2.139299   1.099870   8.943944
    31  H    3.101698  10.848387   1.100584   2.132932   8.154053
    32  H    4.232357  10.738754   1.100165   2.132462   8.107255
    33  H   12.520711   1.099786  11.152744  11.770705   4.872214
    34  H   11.008394   1.099707   9.526432  10.106288   4.019325
    35  H   14.638935   3.003463  13.095599  13.643506   6.846445
    36  H   13.514283   3.003089  12.075708  12.475052   6.814302
    37  H   14.551356   3.606435  12.766963  13.292440   6.958753
    38  H    6.175667   6.175234   4.248592   4.905252   4.503886
    39  H    7.510979   8.352427   4.694111   6.161815   4.619823
    40  H    9.444521   6.818147   6.868267   8.242585   2.762940
                   16         17         18         19         20
    16  N    0.000000
    17  N    6.098081   0.000000
    18  N    2.278604   4.362097   0.000000
    19  O    4.468861   2.288028   2.856744   0.000000
    20  S    9.066532   5.260688   7.931713   5.147396   0.000000
    21  S   11.856424   7.854921  10.885187   8.100068   3.072664
    22  O    2.271009   5.763553   2.256743   4.826460   9.883298
    23  H    2.430382   4.413544   0.999826   2.479695   7.306390
    24  H    6.563362   1.000395   4.762592   3.141282   6.067393
    25  H    1.000303   6.037159   2.459876   4.153798   8.438017
    26  H    1.000564   6.920415   3.195044   5.403670   9.909874
    27  H   12.462975   8.454629  11.161351   8.447186   3.756685
    28  H   13.650658   9.458595  12.449853   9.660535   4.629738
    29  H    3.936549   4.501750   2.101403   3.938395   8.994671
    30  H    4.349970   3.864030   2.100565   2.889392   7.683958
    31  H    4.139699   2.832330   2.670403   2.993480   7.659242
    32  H    5.416231   2.524717   3.399268   3.223073   7.582166
    33  H   12.393318   9.256022  11.584682   8.957919   4.004696
    34  H   10.982324   7.680100   9.998425   7.340811   2.452394
    35  H   14.594061  11.184557  13.589967  10.957735   6.048436
    36  H   13.489180  10.348746  12.419823   9.904024   5.408614
    37  H   14.651381  10.866425  13.405338  10.766851   6.098918
    38  H    6.549665   2.695278   5.054433   2.226323   3.045856
    39  H    8.201035   2.640264   6.778564   4.714161   5.566727
    40  H    9.920629   4.566213   8.670983   6.189080   4.715186
                   21         22         23         24         25
    21  S    0.000000
    22  O   12.716706   0.000000
    23  H   10.285028   3.137802   0.000000
    24  H    8.518272   5.884334   4.992367   0.000000
    25  H   11.219823   3.161980   2.186430   6.634669   0.000000
    26  H   12.625073   2.517111   3.428738   7.337350   1.733423
    27  H    3.254303  13.263479  10.478568   9.107517  11.772355
    28  H    2.715779  14.462218  11.798254  10.068242  12.972433
    29  H   11.925894   2.457327   2.962907   4.467058   4.420260
    30  H   10.698456   3.751244   2.369736   4.088761   4.436012
    31  H   10.346935   3.140529   3.313820   2.806787   4.508092
    32  H   10.319328   4.258711   3.941051   2.177486   5.693628
    33  H    2.400877  13.562448  10.828937  10.046412  11.616799
    34  H    2.401056  12.038230   9.254836   8.483082  10.233613
    35  H    4.379029  15.685542  12.816561  11.904649  13.803592
    36  H    4.730924  14.587150  11.612707  11.103317  12.681910
    37  H    4.927431  15.553656  12.671824  11.509967  13.905944
    38  H    6.040015   7.047129   4.544169   3.623259   6.074626
    39  H    7.276250   7.787207   6.883977   2.452790   8.184066
    40  H    5.415586   9.895515   8.561769   4.697539   9.719438
                   26         27         28         29         30
    26  H    0.000000
    27  H   13.356897   0.000000
    28  H   14.500783   1.796313   0.000000
    29  H    4.608849  12.047385  13.353831   0.000000
    30  H    5.246878  10.508492  11.913921   1.796820   0.000000
    31  H    4.783404  11.043966  12.105675   2.478146   3.042350
    32  H    6.171245  10.589959  11.754175   2.414498   2.482307
    33  H   13.162867   2.978681   2.680135  12.856983  11.467003
    34  H   11.808698   2.251979   2.969319  11.188708   9.748519
    35  H   15.422207   3.042632   2.455800  14.714048  13.176652
    36  H   14.351422   2.455126   3.041885  13.539025  11.920620
    37  H   15.540356   2.429355   2.429483  14.325523  12.721789
    38  H    7.469268   6.261136   7.454882   5.961071   4.660427
    39  H    8.884941   8.547215   9.095851   6.784853   6.439007
    40  H   10.610319   7.225343   7.350778   9.003044   8.399945
                   31         32         33         34         35
    31  H    0.000000
    32  H    1.796413   0.000000
    33  H   11.572588  11.577223   0.000000
    34  H   10.025799   9.921620   1.795949   0.000000
    35  H   13.655035  13.395261   2.717471   3.705429   0.000000
    36  H   12.722660  12.385718   3.011379   3.158979   1.795923
    37  H   13.433903  12.942726   3.836158   4.083326   1.795983
    38  H    4.850744   4.678178   6.959833   5.288929   8.854548
    39  H    4.692768   4.568369   9.209172   7.914745  11.160695
    40  H    6.918195   6.861337   7.632287   6.668245   9.537751
                   36         37         38         39         40
    36  H    0.000000
    37  H    1.795869   0.000000
    38  H    7.875271   8.619786   0.000000
    39  H   10.717496  10.929253   4.306247   0.000000
    40  H    9.440545   9.464899   4.969067   2.465551   0.000000
 Stoichiometry    C14H18N4O2S2
 Framework group  C1[X(C14H18N4O2S2)]
 Deg. of freedom   114
 Full point group                 C1      NOp   1
 Largest Abelian subgroup         C1      NOp   1
 Largest concise Abelian subgroup C1      NOp   1
                         Standard orientation:                         
 ---------------------------------------------------------------------
 Center     Atomic      Atomic             Coordinates (Angstroms)
 Number     Number       Type             X           Y           Z
 ---------------------------------------------------------------------
      1          6           0       -0.918434    2.973736   -0.321176
      2          6           0        0.408840    2.859872    0.068476
      3          6           0        0.124668    0.475843    0.398235
      4          6           0       -1.737867    1.844562   -0.358447
      5          6           0        0.939812    1.622664    0.432646
      6          6           0       -1.193760    0.608894   -0.000283
      7          6           0       -3.534765    0.617715   -0.649450
      8          6           0       -7.263763   -2.627191    1.291554
      9          6           0       -6.310155   -1.479745    0.907739
     10          6           0        3.109050    0.468333    0.681863
     11          6           0        6.483623   -1.377413   -0.671460
     12          6           0       -5.483105   -1.453038   -0.391444
     13          6           0        4.566326    0.774390    0.981618
     14          6           0        5.383089   -0.447620    1.337212
     15          7           0       -3.078949    1.816137   -0.729849
     16          7           0        6.369566   -2.226253   -1.710401
     17          7           0        2.291920    1.535178    0.821600
     18          7           0        5.475744   -1.382897    0.208418
     19          8           0        2.714935   -0.658671    0.328490
     20         16           0       -2.412087   -0.620396   -0.127434
     21         16           0       -5.215963    0.210985   -1.069957
     22          8           0        7.462646   -0.616895   -0.538810
     23          1           0        4.747998   -2.058558    0.092139
     24          1           0        2.700436    2.348212    1.237389
     25          1           0        5.564278   -2.814262   -1.790167
     26          1           0        7.091436   -2.268155   -2.401977
     27          1           0       -5.581530   -1.408696    1.728880
     28          1           0       -6.929039   -0.570686    0.887035
     29          1           0        6.397297   -0.129775    1.621330
     30          1           0        4.907440   -0.960442    2.186027
     31          1           0        5.013362    1.244620    0.092613
     32          1           0        4.607115    1.477326    1.826946
     33          1           0       -6.009755   -2.053546   -1.147460
     34          1           0       -4.501406   -1.903263   -0.184271
     35          1           0       -8.043774   -2.728488    0.523428
     36          1           0       -6.695951   -3.565787    1.364643
     37          1           0       -7.731782   -2.405482    2.262360
     38          1           0        0.522513   -0.492917    0.678243
     39          1           0        1.039920    3.741381    0.089371
     40          1           0       -1.319733    3.942457   -0.596594
 ---------------------------------------------------------------------
 Rotational constants (GHZ):      0.5171882      0.0728766      0.0677128
 Standard basis: 6-31G(d) (6D, 7F)
 There are   374 symmetry adapted basis functions of A   symmetry.
 Integral buffers will be    131072 words long.
 Raffenetti 1 integral format.
 Two-electron integral symmetry is turned on.
   374 basis functions,   736 primitive gaussians,   374 cartesian basis functions
    89 alpha electrons       89 beta electrons
       nuclear repulsion energy      1931.2178149071 Hartrees.
 NAtoms=   40 NActive=   40 NUniq=   40 SFac= 1.00D+00 NAtFMM=   60 NAOKFM=F Big=F
 One-electron integrals computed using PRISM.
 NBasis=   374 RedAO= T  NBF=   374
 NBsUse=   374 1.00D-06 NBFU=   374
 Harris functional with IExCor=  205 diagonalized for initial guess.
 ExpMin= 1.17D-01 ExpMax= 2.19D+04 ExpMxC= 3.30D+03 IAcc=1 IRadAn=         1 AccDes= 0.00D+00
 HarFok:  IExCor=  205 AccDes= 0.00D+00 IRadAn=         1 IDoV= 1
 ScaDFX=  1.000000  1.000000  1.000000  1.000000
 FoFCou: FMM=F IPFlag=           0 FMFlag=      100000 FMFlg1=           0
         NFxFlg=           0 DoJE=T BraDBF=F KetDBF=T FulRan=T
         Omega=  0.000000  0.000000  1.000000  0.000000  0.000000 ICntrl=     500 IOpCl=  0
         NMat0=    1 NMatS0=    1 NMatT0=    0 NMatD0=    1 NMtDS0=    0 NMtDT0=    0
         I1Cent=           4 NGrid=           0.
 Petite list used in FoFCou.
 Initial guess orbital symmetries:
       Occupied  (A) (A) (A) (A) (A) (A) (A) (A) (A) (A) (A) (A)
                 (A) (A) (A) (A) (A) (A) (A) (A) (A) (A) (A) (A)
                 (A) (A) (A) (A) (A) (A) (A) (A) (A) (A) (A) (A)
                 (A) (A) (A) (A) (A) (A) (A) (A) (A) (A) (A) (A)
                 (A) (A) (A) (A) (A) (A) (A) (A) (A) (A) (A) (A)
                 (A) (A) (A) (A) (A) (A) (A) (A) (A) (A) (A) (A)
                 (A) (A) (A) (A) (A) (A) (A) (A) (A) (A) (A) (A)
                 (A) (A) (A) (A) (A)
       Virtual   (A) (A) (A) (A) (A) (A) (A) (A) (A) (A) (A) (A)
                 (A) (A) (A) (A) (A) (A) (A) (A) (A) (A) (A) (A)
                 (A) (A) (A) (A) (A) (A) (A) (A) (A) (A) (A) (A)
                 (A) (A) (A) (A) (A) (A) (A) (A) (A) (A) (A) (A)
                 (A) (A) (A) (A) (A) (A) (A) (A) (A) (A) (A) (A)
                 (A) (A) (A) (A) (A) (A) (A) (A) (A) (A) (A) (A)
                 (A) (A) (A) (A) (A) (A) (A) (A) (A) (A) (A) (A)
                 (A) (A) (A) (A) (A) (A) (A) (A) (A) (A) (A) (A)
                 (A) (A) (A) (A) (A) (A) (A) (A) (A) (A) (A) (A)
                 (A) (A) (A) (A) (A) (A) (A) (A) (A) (A) (A) (A)
                 (A) (A) (A) (A) (A) (A) (A) (A) (A) (A) (A) (A)
                 (A) (A) (A) (A) (A) (A) (A) (A) (A) (A) (A) (A)
                 (A) (A) (A) (A) (A) (A) (A) (A) (A) (A) (A) (A)
                 (A) (A) (A) (A) (A) (A) (A) (A) (A) (A) (A) (A)
                 (A) (A) (A) (A) (A) (A) (A) (A) (A) (A) (A) (A)
                 (A) (A) (A) (A) (A) (A) (A) (A) (A) (A) (A) (A)
                 (A) (A) (A) (A) (A) (A) (A) (A) (A) (A) (A) (A)
                 (A) (A) (A) (A) (A) (A) (A) (A) (A) (A) (A) (A)
                 (A) (A) (A) (A) (A) (A) (A) (A) (A) (A) (A) (A)
                 (A) (A) (A) (A) (A) (A) (A) (A) (A) (A) (A) (A)
                 (A) (A) (A) (A) (A) (A) (A) (A) (A) (A) (A) (A)
                 (A) (A) (A) (A) (A) (A) (A) (A) (A) (A) (A) (A)
                 (A) (A) (A) (A) (A) (A) (A) (A) (A) (A) (A) (A)
                 (A) (A) (A) (A) (A) (A) (A) (A) (A)
 The electronic state of the initial guess is 1-A.
 Requested convergence on RMS density matrix=1.00D-08 within 128 cycles.
 Requested convergence on MAX density matrix=1.00D-06.
 Requested convergence on             energy=1.00D-06.
 No special actions if energy rises.
 Integral accuracy reduced to 1.0D-05 until final iterations.
 Initial convergence to 1.0D-05 achieved.  Increase integral accuracy.
 SCF Done:  E(RHF) =  -1703.21132721     A.U. after   16 cycles
             Convg  =    0.7061D-08             -V/T =  2.0013

 **********************************************************************

            Population analysis using the SCF density.

 **********************************************************************

 Orbital symmetries:
 BldTbl:  Degeneracy threshold= 1.00D-02
       Occupied  (A) (A) (A) (A) (A) (A) (A) (A) (A) (A) (A) (A)
                 (A) (A) (A) (A) (A) (A) (A) (A) (A) (A) (A) (A)
                 (A) (A) (A) (A) (A) (A) (A) (A) (A) (A) (A) (A)
                 (A) (A) (A) (A) (A) (A) (A) (A) (A) (A) (A) (A)
                 (A) (A) (A) (A) (A) (A) (A) (A) (A) (A) (A) (A)
                 (A) (A) (A) (A) (A) (A) (A) (A) (A) (A) (A) (A)
                 (A) (A) (A) (A) (A) (A) (A) (A) (A) (A) (A) (A)
                 (A) (A) (A) (A) (A)
       Virtual   (A) (A) (A) (A) (A) (A) (A) (A) (A) (A) (A) (A)
                 (A) (A) (A) (A) (A) (A) (A) (A) (A) (A) (A) (A)
                 (A) (A) (A) (A) (A) (A) (A) (A) (A) (A) (A) (A)
                 (A) (A) (A) (A) (A) (A) (A) (A) (A) (A) (A) (A)
                 (A) (A) (A) (A) (A) (A) (A) (A) (A) (A) (A) (A)
                 (A) (A) (A) (A) (A) (A) (A) (A) (A) (A) (A) (A)
                 (A) (A) (A) (A) (A) (A) (A) (A) (A) (A) (A) (A)
                 (A) (A) (A) (A) (A) (A) (A) (A) (A) (A) (A) (A)
                 (A) (A) (A) (A) (A) (A) (A) (A) (A) (A) (A) (A)
                 (A) (A) (A) (A) (A) (A) (A) (A) (A) (A) (A) (A)
                 (A) (A) (A) (A) (A) (A) (A) (A) (A) (A) (A) (A)
                 (A) (A) (A) (A) (A) (A) (A) (A) (A) (A) (A) (A)
                 (A) (A) (A) (A) (A) (A) (A) (A) (A) (A) (A) (A)
                 (A) (A) (A) (A) (A) (A) (A) (A) (A) (A) (A) (A)
                 (A) (A) (A) (A) (A) (A) (A) (A) (A) (A) (A) (A)
                 (A) (A) (A) (A) (A) (A) (A) (A) (A) (A) (A) (A)
                 (A) (A) (A) (A) (A) (A) (A) (A) (A) (A) (A) (A)
                 (A) (A) (A) (A) (A) (A) (A) (A) (A) (A) (A) (A)
                 (A) (A) (A) (A) (A) (A) (A) (A) (A) (A) (A) (A)
                 (A) (A) (A) (A) (A) (A) (A) (A) (A) (A) (A) (A)
                 (A) (A) (A) (A) (A) (A) (A) (A) (A) (A) (A) (A)
                 (A) (A) (A) (A) (A) (A) (A) (A) (A) (A) (A) (A)
                 (A) (A) (A) (A) (A) (A) (A) (A) (A) (A) (A) (A)
                 (A) (A) (A) (A) (A) (A) (A) (A) (A)
 The electronic state is 1-A.
 Alpha  occ. eigenvalues --  -91.98587 -91.96669 -20.54162 -20.48692 -15.62051
 Alpha  occ. eigenvalues --  -15.57813 -15.57738 -15.57421 -11.37308 -11.36239
 Alpha  occ. eigenvalues --  -11.34984 -11.29835 -11.27804 -11.27790 -11.27644
 Alpha  occ. eigenvalues --  -11.27583 -11.25294 -11.25093 -11.24958 -11.24899
 Alpha  occ. eigenvalues --  -11.23812 -11.23201  -8.99733  -8.97655  -6.67984
 Alpha  occ. eigenvalues --   -6.67889  -6.67691  -6.65929  -6.65791  -6.65592
 Alpha  occ. eigenvalues --   -1.38715  -1.36332  -1.29769  -1.26976  -1.22780
 Alpha  occ. eigenvalues --   -1.18987  -1.15290  -1.10272  -1.07935  -1.06182
 Alpha  occ. eigenvalues --   -1.03236  -1.00732  -0.98386  -0.92328  -0.90173
 Alpha  occ. eigenvalues --   -0.85331  -0.83151  -0.81059  -0.80124  -0.79168
 Alpha  occ. eigenvalues --   -0.75627  -0.74735  -0.72391  -0.71554  -0.69353
 Alpha  occ. eigenvalues --   -0.67228  -0.67130  -0.65314  -0.63828  -0.61673
 Alpha  occ. eigenvalues --   -0.61365  -0.60325  -0.59959  -0.59411  -0.58711
 Alpha  occ. eigenvalues --   -0.58318  -0.57707  -0.57326  -0.56400  -0.55943
 Alpha  occ. eigenvalues --   -0.54820  -0.53846  -0.52548  -0.52474  -0.49778
 Alpha  occ. eigenvalues --   -0.49263  -0.48495  -0.47784  -0.45738  -0.43829
 Alpha  occ. eigenvalues --   -0.43314  -0.42245  -0.42027  -0.41162  -0.40192
 Alpha  occ. eigenvalues --   -0.37847  -0.37266  -0.32595  -0.29467
 Alpha virt. eigenvalues --    0.10028   0.12729   0.15447   0.16584   0.16952
 Alpha virt. eigenvalues --    0.19341   0.21049   0.21455   0.21976   0.24484
 Alpha virt. eigenvalues --    0.24889   0.25963   0.26222   0.26556   0.26597
 Alpha virt. eigenvalues --    0.27067   0.28871   0.29058   0.30653   0.31028
 Alpha virt. eigenvalues --    0.31362   0.31424   0.32330   0.32798   0.33115
 Alpha virt. eigenvalues --    0.34378   0.35079   0.35901   0.36989   0.37621
 Alpha virt. eigenvalues --    0.39150   0.39671   0.41476   0.41678   0.42666
 Alpha virt. eigenvalues --    0.44227   0.47152   0.48144   0.49074   0.49805
 Alpha virt. eigenvalues --    0.50530   0.51903   0.52792   0.52995   0.53954
 Alpha virt. eigenvalues --    0.56307   0.56897   0.58914   0.59470   0.62840
 Alpha virt. eigenvalues --    0.63510   0.66163   0.67157   0.70431   0.70964
 Alpha virt. eigenvalues --    0.71741   0.72286   0.73535   0.74204   0.74391
 Alpha virt. eigenvalues --    0.74725   0.75953   0.77779   0.77999   0.78701
 Alpha virt. eigenvalues --    0.79366   0.79638   0.79986   0.80938   0.81550
 Alpha virt. eigenvalues --    0.81813   0.82245   0.83939   0.84883   0.86757
 Alpha virt. eigenvalues --    0.87691   0.88678   0.89131   0.90265   0.91179
 Alpha virt. eigenvalues --    0.91433   0.91789   0.92409   0.93992   0.95045
 Alpha virt. eigenvalues --    0.95386   0.96327   0.97133   0.98536   1.00026
 Alpha virt. eigenvalues --    1.00283   1.00685   1.02445   1.03492   1.04621
 Alpha virt. eigenvalues --    1.05136   1.06410   1.07575   1.08669   1.09606
 Alpha virt. eigenvalues --    1.10300   1.10671   1.11190   1.12292   1.12630
 Alpha virt. eigenvalues --    1.12853   1.13150   1.13476   1.14092   1.14906
 Alpha virt. eigenvalues --    1.15783   1.15909   1.16420   1.16711   1.16848
 Alpha virt. eigenvalues --    1.17774   1.18462   1.18741   1.19167   1.19935
 Alpha virt. eigenvalues --    1.20729   1.21445   1.21902   1.22233   1.23435
 Alpha virt. eigenvalues --    1.23973   1.24960   1.26620   1.27513   1.29637
 Alpha virt. eigenvalues --    1.30251   1.31078   1.32207   1.32622   1.33636
 Alpha virt. eigenvalues --    1.35232   1.36805   1.37752   1.38258   1.39528
 Alpha virt. eigenvalues --    1.42102   1.42917   1.44986   1.49077   1.49678
 Alpha virt. eigenvalues --    1.51302   1.52590   1.55398   1.55838   1.56858
 Alpha virt. eigenvalues --    1.59115   1.59553   1.60631   1.61623   1.63079
 Alpha virt. eigenvalues --    1.66331   1.67557   1.69145   1.70301   1.71761
 Alpha virt. eigenvalues --    1.72663   1.73456   1.73737   1.75827   1.77207
 Alpha virt. eigenvalues --    1.78777   1.79695   1.80326   1.84683   1.87304
 Alpha virt. eigenvalues --    1.87837   1.90644   1.93550   1.95852   1.96815
 Alpha virt. eigenvalues --    1.99142   2.00048   2.02820   2.03461   2.04076
 Alpha virt. eigenvalues --    2.07184   2.08922   2.10355   2.12231   2.13504
 Alpha virt. eigenvalues --    2.14074   2.14670   2.16798   2.17535   2.19639
 Alpha virt. eigenvalues --    2.20708   2.21293   2.21886   2.22994   2.24159
 Alpha virt. eigenvalues --    2.26037   2.26908   2.27206   2.27513   2.30657
 Alpha virt. eigenvalues --    2.32805   2.33965   2.34987   2.37626   2.38312
 Alpha virt. eigenvalues --    2.38677   2.39996   2.40271   2.40953   2.44960
 Alpha virt. eigenvalues --    2.45562   2.48701   2.49542   2.50547   2.51270
 Alpha virt. eigenvalues --    2.53947   2.56367   2.58926   2.59236   2.60717
 Alpha virt. eigenvalues --    2.61697   2.62409   2.62884   2.64650   2.64840
 Alpha virt. eigenvalues --    2.65564   2.67793   2.70191   2.71641   2.72655
 Alpha virt. eigenvalues --    2.76156   2.77695   2.78299   2.80720   2.82630
 Alpha virt. eigenvalues --    2.84316   2.85752   2.88539   2.92503   2.94816
 Alpha virt. eigenvalues --    2.96361   2.98459   2.99061   2.99467   3.01547
 Alpha virt. eigenvalues --    3.01974   3.04378   3.04880   3.06894   3.10307
 Alpha virt. eigenvalues --    3.13808   3.17654   3.19899   3.26594   3.30209
 Alpha virt. eigenvalues --    3.31420   3.34018   3.39809   3.48879   3.51264
 Alpha virt. eigenvalues --    3.56741   3.65345   3.80568   4.24716   4.28641
 Alpha virt. eigenvalues --    4.38682   4.40873   4.49267   4.51167   4.51856
 Alpha virt. eigenvalues --    4.53348   4.53975   4.54929   4.58583   4.62532
 Alpha virt. eigenvalues --    4.63167   4.68581   4.71585   4.79290   4.79604
 Alpha virt. eigenvalues --    4.87140   4.89153   4.90073   4.97313   5.17491
          Condensed to atoms (all electrons):
              1          2          3          4          5          6
     1  C    4.904105   0.542821  -0.035145   0.571790  -0.040360  -0.062843
     2  C    0.542821   4.974727  -0.044640  -0.042959   0.552488  -0.034927
     3  C   -0.035145  -0.044640   4.971743  -0.013682   0.591273   0.468408
     4  C    0.571790  -0.042959  -0.013682   4.529664  -0.024902   0.511817
     5  C   -0.040360   0.552488   0.591273  -0.024902   4.531194  -0.041868
     6  C   -0.062843  -0.034927   0.468408   0.511817  -0.041868   5.297473
     7  C    0.004185  -0.000041   0.002597  -0.104560  -0.000096  -0.053069
     8  C    0.000000   0.000000   0.000000   0.000000   0.000000   0.000000
     9  C    0.000000   0.000000   0.000000   0.000003   0.000000  -0.000012
    10  C   -0.000055   0.002494  -0.002817   0.000008  -0.024771   0.000099
    11  C    0.000000   0.000000   0.000000   0.000000   0.000000   0.000000
    12  C    0.000001   0.000000  -0.000001  -0.000110   0.000000   0.000338
    13  C    0.000000  -0.000179   0.000150   0.000000   0.004400   0.000004
    14  C    0.000000   0.000002  -0.000008   0.000000  -0.000106   0.000000
    15  N   -0.047266   0.003041   0.007011   0.407030  -0.000376  -0.092785
    16  N    0.000000   0.000000   0.000000   0.000000   0.000000   0.000000
    17  N    0.003211  -0.054886  -0.048462   0.000205   0.196244   0.003745
    18  N    0.000000   0.000000   0.000000   0.000000   0.000005   0.000000
    19  O   -0.000010   0.000284  -0.012730   0.000007   0.003084   0.000458
    20  S    0.004299   0.000224  -0.043108  -0.074033   0.001755   0.269844
    21  S   -0.000051   0.000003   0.000000   0.003261   0.000000   0.002661
    22  O    0.000000   0.000000   0.000000   0.000000   0.000000   0.000000
    23  H    0.000000   0.000000   0.000000   0.000000  -0.000001   0.000000
    24  H    0.000065  -0.000950   0.002154  -0.000004  -0.022396  -0.000059
    25  H    0.000000   0.000000   0.000000   0.000000   0.000000   0.000000
    26  H    0.000000   0.000000   0.000000   0.000000   0.000000   0.000000
    27  H    0.000000   0.000000   0.000000   0.000001   0.000000  -0.000013
    28  H    0.000000   0.000000   0.000000   0.000000   0.000000   0.000000
    29  H    0.000000   0.000000   0.000000   0.000000   0.000001   0.000000
    30  H    0.000000   0.000000  -0.000001   0.000000  -0.000007   0.000000
    31  H    0.000000   0.000019  -0.000002   0.000000  -0.000258   0.000000
    32  H    0.000000  -0.000032  -0.000008   0.000000   0.000309   0.000000
    33  H    0.000000   0.000000   0.000000   0.000002   0.000000  -0.000003
    34  H    0.000000   0.000000   0.000006  -0.000031   0.000000   0.000004
    35  H    0.000000   0.000000   0.000000   0.000000   0.000000   0.000000
    36  H    0.000000   0.000000   0.000000   0.000000   0.000000   0.000000
    37  H    0.000000   0.000000   0.000000   0.000000   0.000000   0.000000
    38  H    0.000070   0.002639   0.366403   0.000943  -0.012308  -0.031171
    39  H   -0.020454   0.376548   0.002900   0.001420  -0.036883   0.000245
    40  H    0.371611  -0.030019  -0.000078  -0.023205   0.001796   0.004552
              7          8          9         10         11         12
     1  C    0.004185   0.000000   0.000000  -0.000055   0.000000   0.000001
     2  C   -0.000041   0.000000   0.000000   0.002494   0.000000   0.000000
     3  C    0.002597   0.000000   0.000000  -0.002817   0.000000  -0.000001
     4  C   -0.104560   0.000000   0.000003   0.000008   0.000000  -0.000110
     5  C   -0.000096   0.000000   0.000000  -0.024771   0.000000   0.000000
     6  C   -0.053069   0.000000  -0.000012   0.000099   0.000000   0.000338
     7  C    5.230793  -0.000016   0.000852   0.000000   0.000000  -0.012937
     8  C   -0.000016   5.090402   0.323604   0.000000   0.000000  -0.027900
     9  C    0.000852   0.323604   5.163070   0.000000   0.000000   0.279670
    10  C    0.000000   0.000000   0.000000   4.179434   0.000154   0.000000
    11  C    0.000000   0.000000   0.000000   0.000154   3.834713   0.000000
    12  C   -0.012937  -0.027900   0.279670   0.000000   0.000000   5.410881
    13  C    0.000000   0.000000   0.000000   0.349169  -0.003235   0.000000
    14  C    0.000000   0.000000   0.000000  -0.038563  -0.028839   0.000000
    15  N    0.498006   0.000000   0.000000   0.000000   0.000000   0.001774
    16  N    0.000000   0.000000   0.000000  -0.000008   0.324093   0.000000
    17  N    0.000000   0.000000   0.000000   0.275193  -0.000005   0.000000
    18  N    0.000000   0.000000   0.000000  -0.001847   0.298094   0.000000
    19  O    0.000000   0.000000   0.000000   0.563616   0.000371   0.000000
    20  S    0.271790  -0.000022  -0.000060  -0.000001   0.000000  -0.011380
    21  S    0.242602   0.003347  -0.059027   0.000000   0.000000   0.227024
    22  O    0.000000   0.000000   0.000000   0.000000   0.624963   0.000000
    23  H    0.000000   0.000000   0.000000   0.000272  -0.014366   0.000000
    24  H    0.000000   0.000000   0.000000  -0.022303   0.000000   0.000000
    25  H    0.000000   0.000000   0.000000   0.000006  -0.018889   0.000000
    26  H    0.000000   0.000000   0.000000   0.000000  -0.013671   0.000000
    27  H    0.000293  -0.045519   0.400696   0.000000   0.000000  -0.048547
    28  H   -0.000140  -0.046088   0.409054   0.000000   0.000000  -0.054234
    29  H    0.000000   0.000000   0.000000   0.003781  -0.000426   0.000000
    30  H    0.000000   0.000000   0.000000  -0.004360   0.002944   0.000000
    31  H    0.000000   0.000000   0.000000  -0.026582   0.002356   0.000000
    32  H    0.000000   0.000000   0.000000  -0.046850   0.000013   0.000000
    33  H    0.001710  -0.001168  -0.053997   0.000000   0.000000   0.387872
    34  H   -0.008381   0.000416  -0.039133   0.000000   0.000000   0.377707
    35  H    0.000000   0.389181  -0.042273   0.000000   0.000000  -0.002310
    36  H    0.000000   0.388594  -0.042178   0.000000   0.000000  -0.001871
    37  H    0.000000   0.397636  -0.034910   0.000000   0.000000   0.003095
    38  H   -0.000015   0.000000   0.000000   0.000618   0.000000   0.000000
    39  H    0.000003   0.000000   0.000000   0.000046   0.000000   0.000000
    40  H   -0.000093   0.000000   0.000000   0.000001   0.000000   0.000000
             13         14         15         16         17         18
     1  C    0.000000   0.000000  -0.047266   0.000000   0.003211   0.000000
     2  C   -0.000179   0.000002   0.003041   0.000000  -0.054886   0.000000
     3  C    0.000150  -0.000008   0.007011   0.000000  -0.048462   0.000000
     4  C    0.000000   0.000000   0.407030   0.000000   0.000205   0.000000
     5  C    0.004400  -0.000106  -0.000376   0.000000   0.196244   0.000005
     6  C    0.000004   0.000000  -0.092785   0.000000   0.003745   0.000000
     7  C    0.000000   0.000000   0.498006   0.000000   0.000000   0.000000
     8  C    0.000000   0.000000   0.000000   0.000000   0.000000   0.000000
     9  C    0.000000   0.000000   0.000000   0.000000   0.000000   0.000000
    10  C    0.349169  -0.038563   0.000000  -0.000008   0.275193  -0.001847
    11  C   -0.003235  -0.028839   0.000000   0.324093  -0.000005   0.298094
    12  C    0.000000   0.000000   0.001774   0.000000   0.000000   0.000000
    13  C    5.348079   0.317596   0.000000  -0.000070  -0.106966  -0.071858
    14  C    0.317596   4.893716   0.000000   0.003144   0.002270   0.224055
    15  N    0.000000   0.000000   6.871409   0.000000  -0.000002   0.000000
    16  N   -0.000070   0.003144   0.000000   7.200911   0.000000  -0.128210
    17  N   -0.106966   0.002270  -0.000002   0.000000   7.389630  -0.000079
    18  N   -0.071858   0.224055   0.000000  -0.128210  -0.000079   7.353161
    19  O   -0.073228   0.005934   0.000000  -0.000028  -0.092349  -0.008393
    20  S    0.000000   0.000000  -0.073451   0.000000  -0.000073   0.000000
    21  S    0.000000   0.000000  -0.052764   0.000000   0.000000   0.000000
    22  O   -0.001248   0.003401   0.000000  -0.090849   0.000000  -0.109806
    23  H    0.000329  -0.017779   0.000000   0.000485   0.000089   0.313832
    24  H    0.000202   0.000039   0.000000   0.000000   0.325238   0.000007
    25  H    0.000012  -0.000185   0.000000   0.316334   0.000000   0.004204
    26  H    0.000004  -0.000083   0.000000   0.319167   0.000000   0.004356
    27  H    0.000000   0.000000  -0.000013   0.000000   0.000000   0.000000
    28  H    0.000000   0.000000  -0.000001   0.000000   0.000000   0.000000
    29  H   -0.045264   0.407812   0.000000   0.000270  -0.000051  -0.034006
    30  H   -0.055284   0.409688   0.000000  -0.000003  -0.000070  -0.040068
    31  H    0.376240  -0.027427   0.000000  -0.000035  -0.002404  -0.003646
    32  H    0.386605  -0.040404   0.000000   0.000000   0.002836   0.004585
    33  H    0.000000   0.000000  -0.000023   0.000000   0.000000   0.000000
    34  H    0.000000   0.000000  -0.000006   0.000000   0.000000   0.000000
    35  H    0.000000   0.000000   0.000000   0.000000   0.000000   0.000000
    36  H    0.000000   0.000000   0.000000   0.000000   0.000000   0.000000
    37  H    0.000000   0.000000   0.000000   0.000000   0.000000   0.000000
    38  H    0.000173   0.000002  -0.000051   0.000000  -0.004844  -0.000001
    39  H    0.000004   0.000000  -0.000054   0.000000  -0.001540   0.000000
    40  H    0.000000   0.000000   0.000485   0.000000  -0.000079   0.000000
             19         20         21         22         23         24
     1  C   -0.000010   0.004299  -0.000051   0.000000   0.000000   0.000065
     2  C    0.000284   0.000224   0.000003   0.000000   0.000000  -0.000950
     3  C   -0.012730  -0.043108   0.000000   0.000000   0.000000   0.002154
     4  C    0.000007  -0.074033   0.003261   0.000000   0.000000  -0.000004
     5  C    0.003084   0.001755   0.000000   0.000000  -0.000001  -0.022396
     6  C    0.000458   0.269844   0.002661   0.000000   0.000000  -0.000059
     7  C    0.000000   0.271790   0.242602   0.000000   0.000000   0.000000
     8  C    0.000000  -0.000022   0.003347   0.000000   0.000000   0.000000
     9  C    0.000000  -0.000060  -0.059027   0.000000   0.000000   0.000000
    10  C    0.563616  -0.000001   0.000000   0.000000   0.000272  -0.022303
    11  C    0.000371   0.000000   0.000000   0.624963  -0.014366   0.000000
    12  C    0.000000  -0.011380   0.227024   0.000000   0.000000   0.000000
    13  C   -0.073228   0.000000   0.000000  -0.001248   0.000329   0.000202
    14  C    0.005934   0.000000   0.000000   0.003401  -0.017779   0.000039
    15  N    0.000000  -0.073451  -0.052764   0.000000   0.000000   0.000000
    16  N   -0.000028   0.000000   0.000000  -0.090849   0.000485   0.000000
    17  N   -0.092349  -0.000073   0.000000   0.000000   0.000089   0.325238
    18  N   -0.008393   0.000000   0.000000  -0.109806   0.313832   0.000007
    19  O    8.242370  -0.000035   0.000000  -0.000001   0.008621   0.002200
    20  S   -0.000035  15.391427  -0.048606   0.000000   0.000000   0.000003
    21  S    0.000000  -0.048606  15.490484   0.000000   0.000000   0.000000
    22  O   -0.000001   0.000000   0.000000   8.254661   0.002338   0.000000
    23  H    0.008621   0.000000   0.000000   0.002338   0.307799  -0.000004
    24  H    0.002200   0.000003   0.000000   0.000000  -0.000004   0.309790
    25  H   -0.000019   0.000000   0.000000   0.002586   0.002826   0.000000
    26  H    0.000000   0.000000   0.000000   0.004653  -0.000132   0.000000
    27  H    0.000000   0.000763   0.002066   0.000000   0.000000   0.000000
    28  H    0.000000   0.000072  -0.005345   0.000000   0.000000   0.000000
    29  H    0.000072   0.000000   0.000000   0.008254   0.002025  -0.000008
    30  H    0.001201   0.000000   0.000000   0.000379  -0.002642   0.000004
    31  H    0.000785   0.000000   0.000000   0.002153   0.000104   0.000240
    32  H    0.001841   0.000000   0.000000  -0.000023  -0.000091   0.002455
    33  H    0.000000   0.000324  -0.040725   0.000000   0.000000   0.000000
    34  H    0.000000   0.002288  -0.029318   0.000000   0.000000   0.000000
    35  H    0.000000   0.000000  -0.000003   0.000000   0.000000   0.000000
    36  H    0.000000  -0.000004  -0.000073   0.000000   0.000000   0.000000
    37  H    0.000000   0.000001  -0.000124   0.000000   0.000000   0.000000
    38  H    0.011732  -0.000083   0.000000   0.000000   0.000004  -0.000159
    39  H    0.000002   0.000013   0.000000   0.000000   0.000000   0.002851
    40  H    0.000000  -0.000110   0.000000   0.000000   0.000000  -0.000005
             25         26         27         28         29         30
     1  C    0.000000   0.000000   0.000000   0.000000   0.000000   0.000000
     2  C    0.000000   0.000000   0.000000   0.000000   0.000000   0.000000
     3  C    0.000000   0.000000   0.000000   0.000000   0.000000  -0.000001
     4  C    0.000000   0.000000   0.000001   0.000000   0.000000   0.000000
     5  C    0.000000   0.000000   0.000000   0.000000   0.000001  -0.000007
     6  C    0.000000   0.000000  -0.000013   0.000000   0.000000   0.000000
     7  C    0.000000   0.000000   0.000293  -0.000140   0.000000   0.000000
     8  C    0.000000   0.000000  -0.045519  -0.046088   0.000000   0.000000
     9  C    0.000000   0.000000   0.400696   0.409054   0.000000   0.000000
    10  C    0.000006   0.000000   0.000000   0.000000   0.003781  -0.004360
    11  C   -0.018889  -0.013671   0.000000   0.000000  -0.000426   0.002944
    12  C    0.000000   0.000000  -0.048547  -0.054234   0.000000   0.000000
    13  C    0.000012   0.000004   0.000000   0.000000  -0.045264  -0.055284
    14  C   -0.000185  -0.000083   0.000000   0.000000   0.407812   0.409688
    15  N    0.000000   0.000000  -0.000013  -0.000001   0.000000   0.000000
    16  N    0.316334   0.319167   0.000000   0.000000   0.000270  -0.000003
    17  N    0.000000   0.000000   0.000000   0.000000  -0.000051  -0.000070
    18  N    0.004204   0.004356   0.000000   0.000000  -0.034006  -0.040068
    19  O   -0.000019   0.000000   0.000000   0.000000   0.000072   0.001201
    20  S    0.000000   0.000000   0.000763   0.000072   0.000000   0.000000
    21  S    0.000000   0.000000   0.002066  -0.005345   0.000000   0.000000
    22  O    0.002586   0.004653   0.000000   0.000000   0.008254   0.000379
    23  H    0.002826  -0.000132   0.000000   0.000000   0.002025  -0.002642
    24  H    0.000000   0.000000   0.000000   0.000000  -0.000008   0.000004
    25  H    0.321386  -0.012110   0.000000   0.000000  -0.000008  -0.000014
    26  H   -0.012110   0.289937   0.000000   0.000000  -0.000002   0.000002
    27  H    0.000000   0.000000   0.549020  -0.021508   0.000000   0.000000
    28  H    0.000000   0.000000  -0.021508   0.534874   0.000000   0.000000
    29  H   -0.000008  -0.000002   0.000000   0.000000   0.447002  -0.019351
    30  H   -0.000014   0.000002   0.000000   0.000000  -0.019351   0.520298
    31  H   -0.000010   0.000001   0.000000   0.000000  -0.001986   0.003759
    32  H    0.000000   0.000000   0.000000   0.000000  -0.001957   0.001191
    33  H    0.000000   0.000000   0.004551   0.000985   0.000000   0.000000
    34  H    0.000000   0.000000  -0.006639   0.004052   0.000000   0.000000
    35  H    0.000000   0.000000   0.004595  -0.002757   0.000000   0.000000
    36  H    0.000000   0.000000  -0.002959   0.004608   0.000000   0.000000
    37  H    0.000000   0.000000  -0.003113  -0.003672   0.000000   0.000000
    38  H    0.000000   0.000000   0.000000   0.000000   0.000000  -0.000001
    39  H    0.000000   0.000000   0.000000   0.000000   0.000000   0.000000
    40  H    0.000000   0.000000   0.000000   0.000000   0.000000   0.000000
             31         32         33         34         35         36
     1  C    0.000000   0.000000   0.000000   0.000000   0.000000   0.000000
     2  C    0.000019  -0.000032   0.000000   0.000000   0.000000   0.000000
     3  C   -0.000002  -0.000008   0.000000   0.000006   0.000000   0.000000
     4  C    0.000000   0.000000   0.000002  -0.000031   0.000000   0.000000
     5  C   -0.000258   0.000309   0.000000   0.000000   0.000000   0.000000
     6  C    0.000000   0.000000  -0.000003   0.000004   0.000000   0.000000
     7  C    0.000000   0.000000   0.001710  -0.008381   0.000000   0.000000
     8  C    0.000000   0.000000  -0.001168   0.000416   0.389181   0.388594
     9  C    0.000000   0.000000  -0.053997  -0.039133  -0.042273  -0.042178
    10  C   -0.026582  -0.046850   0.000000   0.000000   0.000000   0.000000
    11  C    0.002356   0.000013   0.000000   0.000000   0.000000   0.000000
    12  C    0.000000   0.000000   0.387872   0.377707  -0.002310  -0.001871
    13  C    0.376240   0.386605   0.000000   0.000000   0.000000   0.000000
    14  C   -0.027427  -0.040404   0.000000   0.000000   0.000000   0.000000
    15  N    0.000000   0.000000  -0.000023  -0.000006   0.000000   0.000000
    16  N   -0.000035   0.000000   0.000000   0.000000   0.000000   0.000000
    17  N   -0.002404   0.002836   0.000000   0.000000   0.000000   0.000000
    18  N   -0.003646   0.004585   0.000000   0.000000   0.000000   0.000000
    19  O    0.000785   0.001841   0.000000   0.000000   0.000000   0.000000
    20  S    0.000000   0.000000   0.000324   0.002288   0.000000  -0.000004
    21  S    0.000000   0.000000  -0.040725  -0.029318  -0.000003  -0.000073
    22  O    0.002153  -0.000023   0.000000   0.000000   0.000000   0.000000
    23  H    0.000104  -0.000091   0.000000   0.000000   0.000000   0.000000
    24  H    0.000240   0.002455   0.000000   0.000000   0.000000   0.000000
    25  H   -0.000010   0.000000   0.000000   0.000000   0.000000   0.000000
    26  H    0.000001   0.000000   0.000000   0.000000   0.000000   0.000000
    27  H    0.000000   0.000000   0.004551  -0.006639   0.004595  -0.002959
    28  H    0.000000   0.000000   0.000985   0.004052  -0.002757   0.004608
    29  H   -0.001986  -0.001957   0.000000   0.000000   0.000000   0.000000
    30  H    0.003759   0.001191   0.000000   0.000000   0.000000   0.000000
    31  H    0.456839  -0.015497   0.000000   0.000000   0.000000   0.000000
    32  H   -0.015497   0.532136   0.000000   0.000000   0.000000   0.000000
    33  H    0.000000   0.000000   0.504300  -0.016218   0.002575   0.000285
    34  H    0.000000   0.000000  -0.016218   0.499134  -0.000046   0.000804
    35  H    0.000000   0.000000   0.002575  -0.000046   0.543046  -0.026174
    36  H    0.000000   0.000000   0.000285   0.000804  -0.026174   0.545955
    37  H    0.000000   0.000000  -0.000056  -0.000087  -0.025460  -0.025942
    38  H   -0.000003  -0.000013   0.000000   0.000000   0.000000   0.000000
    39  H   -0.000002  -0.000006   0.000000   0.000000   0.000000   0.000000
    40  H    0.000000   0.000000   0.000000   0.000000   0.000000   0.000000
             37         38         39         40
     1  C    0.000000   0.000070  -0.020454   0.371611
     2  C    0.000000   0.002639   0.376548  -0.030019
     3  C    0.000000   0.366403   0.002900  -0.000078
     4  C    0.000000   0.000943   0.001420  -0.023205
     5  C    0.000000  -0.012308  -0.036883   0.001796
     6  C    0.000000  -0.031171   0.000245   0.004552
     7  C    0.000000  -0.000015   0.000003  -0.000093
     8  C    0.397636   0.000000   0.000000   0.000000
     9  C   -0.034910   0.000000   0.000000   0.000000
    10  C    0.000000   0.000618   0.000046   0.000001
    11  C    0.000000   0.000000   0.000000   0.000000
    12  C    0.003095   0.000000   0.000000   0.000000
    13  C    0.000000   0.000173   0.000004   0.000000
    14  C    0.000000   0.000002   0.000000   0.000000
    15  N    0.000000  -0.000051  -0.000054   0.000485
    16  N    0.000000   0.000000   0.000000   0.000000
    17  N    0.000000  -0.004844  -0.001540  -0.000079
    18  N    0.000000  -0.000001   0.000000   0.000000
    19  O    0.000000   0.011732   0.000002   0.000000
    20  S    0.000001  -0.000083   0.000013  -0.000110
    21  S   -0.000124   0.000000   0.000000   0.000000
    22  O    0.000000   0.000000   0.000000   0.000000
    23  H    0.000000   0.000004   0.000000   0.000000
    24  H    0.000000  -0.000159   0.002851  -0.000005
    25  H    0.000000   0.000000   0.000000   0.000000
    26  H    0.000000   0.000000   0.000000   0.000000
    27  H   -0.003113   0.000000   0.000000   0.000000
    28  H   -0.003672   0.000000   0.000000   0.000000
    29  H    0.000000   0.000000   0.000000   0.000000
    30  H    0.000000  -0.000001   0.000000   0.000000
    31  H    0.000000  -0.000003  -0.000002   0.000000
    32  H    0.000000  -0.000013  -0.000006   0.000000
    33  H   -0.000056   0.000000   0.000000   0.000000
    34  H   -0.000087   0.000000   0.000000   0.000000
    35  H   -0.025460   0.000000   0.000000   0.000000
    36  H   -0.025942   0.000000   0.000000   0.000000
    37  H    0.516371   0.000000   0.000000   0.000000
    38  H    0.000000   0.389429  -0.000086   0.000007
    39  H    0.000000  -0.000086   0.467312  -0.001837
    40  H    0.000000   0.000007  -0.001837   0.446071
 Mulliken atomic charges:
              1
     1  C   -0.195975
     2  C   -0.246656
     3  C   -0.211962
     4  C    0.257333
     5  C    0.321783
     6  C   -0.242898
     7  C   -0.073486
     8  C   -0.472469
     9  C   -0.305361
    10  C    0.793265
    11  C    0.991730
    12  C   -0.529071
    13  C   -0.425637
    14  C   -0.114265
    15  N   -0.521966
    16  N   -0.945203
    17  N   -0.886850
    18  N   -0.804388
    19  O   -0.655785
    20  S    0.308161
    21  S    0.264586
    22  O   -0.701462
    23  H    0.396292
    24  H    0.400640
    25  H    0.383881
    26  H    0.407878
    27  H    0.166326
    28  H    0.180100
    29  H    0.233842
    30  H    0.182336
    31  H    0.235356
    32  H    0.172911
    33  H    0.209585
    34  H    0.215448
    35  H    0.159625
    36  H    0.158956
    37  H    0.176259
    38  H    0.276714
    39  H    0.209519
    40  H    0.230905
 Sum of Mulliken atomic charges =   0.00000
 Mulliken charges with hydrogens summed into heavy atoms:
              1
     1  C    0.034930
     2  C   -0.037137
     3  C    0.064752
     4  C    0.257333
     5  C    0.321783
     6  C   -0.242898
     7  C   -0.073486
     8  C    0.022371
     9  C    0.041065
    10  C    0.793265
    11  C    0.991730
    12  C   -0.104038
    13  C   -0.017371
    14  C    0.301913
    15  N   -0.521966
    16  N   -0.153444
    17  N   -0.486210
    18  N   -0.408095
    19  O   -0.655785
    20  S    0.308161
    21  S    0.264586
    22  O   -0.701462
 Sum of Mulliken charges with hydrogens summed into heavy atoms =   0.00000
 DipInt: DoE/N= T F RetVal/Mat= T F Init=T NMatP=  1 IDeriv=0 Min/MaxMlt=  0  4
 Entering OneElI...
 OneElI was handed    33195187 working-precision words.
 Multipole integrals L=0 to 4 MinM= 0 MaxM= 0.
 Requested accuracy = 0.1000D-12
 PrsmSu:  NPrtUS=   1 ThrOK=F IAlg=1 NPAlg=1 LenDen=           0.
 Prism:   IPart=     0 DynPar=F LinDyn=F Incr=          48.
 PRISM was handed    32723418 working-precision words and  4856 shell-pairs
 IPart=  0 NShTot=        4856 NBatch=          55 AvBLen=        88.3
 PrSmSu:  NxtVal=             49.
 Electronic moments (au):
       -178.00000000         -0.81231718         -0.62842558          0.82242666
     -13053.91863671      -1606.75518724       -566.33076166          9.42429892
         -1.66168500          6.99407297      -8759.52967066      -1084.91760702
        -28.30333703       1814.36971683      23541.87148704       1085.72095879
       -433.92068658        677.27447258         27.89788081      -4347.67827561
   -1711506.77189475     -37629.71412101      -5308.61765479     -29109.41449226
      90769.63863786      -7538.36560178       1542.21456110       3200.42330745
       -398.87621465    -118956.49856744     -60514.32460585      -6074.01844120
       4269.20280887      13036.65362148        605.96547833
 Electronic spatial extent (au):  <R**2>=          15227.0046
 DipInt: DoE/N= F T RetVal/Mat= T F Init=T NMatP=  1 IDeriv=0 Min/MaxMlt=  0  4
 Nuclear    moments (au):
        178.00000000          0.00000000          0.00000000          0.00000000
      12921.80649649       1511.82408006        461.99449032          0.00000000
          0.00000000          0.00000000       8162.24388363       1072.97911699
         22.46814273      -1688.58654164     -23699.46294223      -1056.29078878
        544.32518171       -710.12836636        -44.59566537       4406.21253185
    1656325.68994270      32335.11379558       3376.44455903      29524.38764346
     -91278.04710808       7235.75195095      -1346.14061633      -3545.21437040
        549.78653908     111026.66384434      53272.23909156       4866.38891197
      -3426.33253247     -13279.97750382       -844.60820310
 Total      moments (au):
          0.00000000         -0.81231718         -0.62842558          0.82242666
       -132.11214022        -94.93110718       -104.33627134          9.42429892
         -1.66168500          6.99407297       -597.28578703        -11.93849003
         -5.83519430        125.78317519       -157.59145518         29.43017001
        110.40449513        -32.85389378        -16.69778457         58.53425623
     -55181.08195205      -5294.60032543      -1932.17309576        414.97315120
       -508.40847022       -302.61365083        196.07394477       -344.79106295
[...]
 **** Fit       0.011890
 **** Fit       0.011690
 **** Fit       0.012039
 **** Fit       0.012909
 **** Fit       0.014185
 **** Fit       0.015726
 **** Fit       0.017369
 **** Fit       0.018906
 **** Fit       0.020057
 **** Fit       0.020480
 **** Fit       0.019906
 **** Fit       0.018378
 **** Fit       0.016391
 **** Fit       0.014633
 **** Fit       0.010424
 **** Fit       0.010581
 **** Fit       0.011391
 **** Fit       0.012712
 **** Fit       0.014407
 **** Fit       0.016360
 **** Fit       0.018451
 **** Fit       0.020520
 **** Fit       0.022303
 **** Fit       0.023399
 **** Fit       0.023323
 **** Fit       0.008787
 **** Fit       0.009699
 **** Fit       0.011258
 **** Fit       0.013282
 **** Fit       0.015657
 **** Fit       0.018312
 **** Fit       0.021168
 **** Fit       0.024060
 **** Fit       0.026632
 **** Fit       0.009411
 **** Fit       0.011806
 **** Fit       0.014600
 **** Fit       0.017770
 **** Fit       0.021335
 **** Fit       0.025302
 **** Fit       0.017642
 **** Fit       0.022031
 **** Fit       0.027196
 **** Fit       0.009270
 **** Fit       0.010419
 **** Fit       0.011390
 **** Fit       0.012330
 **** Fit       0.009010
 **** Fit       0.010127
 **** Fit       0.011063
 **** Fit       0.011899
 **** Fit       0.012710
 **** Fit       0.009359
 **** Fit       0.010322
 **** Fit       0.011132
 **** Fit       0.011827
 **** Fit       0.012431
 **** Fit       0.012941
 **** Fit       0.008460
 **** Fit       0.009512
 **** Fit       0.010378
 **** Fit       0.011083
 **** Fit       0.011644
 **** Fit       0.012061
 **** Fit       0.012314
 **** Fit       0.012361
 **** Fit       0.012168
 **** Fit       0.011763
 **** Fit       0.011299
 **** Fit       0.007968
 **** Fit       0.009052
 **** Fit       0.009930
 **** Fit       0.010619
 **** Fit       0.011130
 **** Fit       0.011462
 **** Fit       0.011608
 **** Fit       0.011560
 **** Fit       0.011336
 **** Fit       0.011007
 **** Fit       0.010715
 **** Fit       0.008466
 **** Fit       0.009367
 **** Fit       0.010051
 **** Fit       0.010530
 **** Fit       0.010810
 **** Fit       0.010897
 **** Fit       0.010805
 **** Fit       0.010577
 **** Fit       0.010291
 **** Fit       0.010065
 **** Fit       0.007590
 **** Fit       0.008618
 **** Fit       0.009360
 **** Fit       0.009840
 **** Fit       0.010076
 **** Fit       0.010090
 **** Fit       0.009923
 **** Fit       0.009644
 **** Fit       0.009347
 **** Fit       0.006451
 **** Fit       0.007668
 **** Fit       0.008496
 **** Fit       0.008985
 **** Fit       0.009175
 **** Fit       0.009109
 **** Fit       0.008849
 **** Fit       0.008475
 **** Fit       0.005750
 **** Fit       0.007017
 **** Fit       0.007751
 **** Fit       0.008035
 **** Fit       0.007945
 **** Fit       0.007558
 **** Fit       0.006926
 **** Fit       0.005672
 **** Fit       0.006503
 **** Fit       0.006551
 **** Fit       0.005933
 **** Fit       0.004731
 **** Fit       0.009862
 **** Fit       0.008880
 **** Fit       0.010187
 **** Fit       0.010085
 **** Fit       0.009831
 **** Fit       0.009320
 **** Fit       0.008496
 **** Fit       0.009925
 **** Fit       0.009647
 **** Fit       0.009370
 **** Fit       0.008937
 **** Fit       0.008239
 **** Fit       0.007176
 **** Fit       0.009701
 **** Fit       0.009262
 **** Fit       0.008921
 **** Fit       0.008510
 **** Fit       0.007896
 **** Fit       0.006960
 **** Fit       0.008631
 **** Fit       0.008215
 **** Fit       0.007709
 **** Fit       0.006960
 **** Fit       0.005821
 **** Fit       0.007800
 **** Fit       0.007339
 **** Fit       0.006740
 **** Fit       0.005837
 **** Fit       0.004478
 **** Fit       0.006795
 **** Fit       0.006368
 **** Fit       0.005726
 **** Fit       0.004694
 **** Fit       0.003127
 **** Fit       0.004639
 **** Fit       0.003525
 **** Fit       0.001628
 **** Fit       0.002032
 **** Fit       0.005492
 **** Fit       0.005327
 **** Fit       0.005192
 **** Fit       0.005044
 **** Fit       0.004859
 **** Fit       0.004628
 **** Fit       0.004359
 **** Fit       0.006327
 **** Fit       0.006081
 **** Fit       0.005918
 **** Fit       0.005777
 **** Fit       0.005618
 **** Fit       0.005418
 **** Fit       0.005169
 **** Fit       0.004874
 **** Fit       0.004547
 **** Fit       0.007405
 **** Fit       0.007010
 **** Fit       0.006762
 **** Fit       0.006584
 **** Fit       0.006425
 **** Fit       0.006249
 **** Fit       0.006035
 **** Fit       0.005775
 **** Fit       0.005469
 **** Fit       0.005127
 **** Fit       0.004768
 **** Fit       0.008536
 **** Fit       0.008004
 **** Fit       0.007652
 **** Fit       0.007401
 **** Fit       0.007196
 **** Fit       0.006996
 **** Fit       0.006775
 **** Fit       0.006517
 **** Fit       0.006216
 **** Fit       0.005875
 **** Fit       0.005507
 **** Fit       0.005135
 **** Fit       0.004794
 **** Fit       0.010221
 **** Fit       0.009363
 **** Fit       0.008775
 **** Fit       0.008362
 **** Fit       0.008048
 **** Fit       0.007778
 **** Fit       0.007512
 **** Fit       0.007225
 **** Fit       0.006904
 **** Fit       0.006546
 **** Fit       0.006159
 **** Fit       0.005764
 **** Fit       0.005393
 **** Fit       0.010871
 **** Fit       0.009958
 **** Fit       0.009321
 **** Fit       0.008850
 **** Fit       0.008467
 **** Fit       0.008115
 **** Fit       0.007760
 **** Fit       0.007384
 **** Fit       0.006981
 **** Fit       0.006564
 **** Fit       0.006157
 **** Fit       0.005807
 **** Fit       0.011417
 **** Fit       0.010427
 **** Fit       0.009725
 **** Fit       0.009184
 **** Fit       0.008722
 **** Fit       0.008288
 **** Fit       0.007856
 **** Fit       0.007420
 **** Fit       0.006992
 **** Fit       0.006606
 **** Fit       0.006319
 **** Fit       0.011869
 **** Fit       0.010740
 **** Fit       0.009937
 **** Fit       0.009302
 **** Fit       0.008750
 **** Fit       0.008238
 **** Fit       0.007763
 **** Fit       0.007352
 **** Fit       0.007067
 **** Fit       0.011938
 **** Fit       0.010767
 **** Fit       0.009918
 **** Fit       0.009241
 **** Fit       0.008678
 **** Fit       0.008231
 **** Fit       0.007959
 **** Fit       0.007975
 **** Fit       0.012437
 **** Fit       0.011061
 **** Fit       0.010127
 **** Fit       0.009477
 **** Fit       0.009107
 **** Fit       0.009122
 **** Fit       0.011805
 **** Fit       0.010804
 **** Fit       0.010525
 **** Fit       0.003379
 **** Fit       0.003208
 **** Fit       0.003680
 **** Fit       0.003767
 **** Fit       0.003758
 **** Fit       0.003627
 **** Fit       0.003372
 **** Fit       0.003025
 **** Fit       0.002584
 **** Fit       0.003806
 **** Fit       0.004010
 **** Fit       0.004159
 **** Fit       0.004216
 **** Fit       0.004151
 **** Fit       0.003949
 **** Fit       0.003604
 **** Fit       0.003131
 **** Fit       0.002557
 **** Fit       0.004012
 **** Fit       0.004279
 **** Fit       0.004509
 **** Fit       0.004661
 **** Fit       0.004703
 **** Fit       0.004611
 **** Fit       0.004364
 **** Fit       0.003948
 **** Fit       0.003347
 **** Fit       0.004235
 **** Fit       0.004529
 **** Fit       0.004809
 **** Fit       0.005036
 **** Fit       0.005176
 **** Fit       0.005201
 **** Fit       0.005090
 **** Fit       0.004822
 **** Fit       0.004370
 **** Fit       0.003690
 **** Fit       0.004696
 **** Fit       0.005002
 **** Fit       0.005290
 **** Fit       0.005522
 **** Fit       0.005668
 **** Fit       0.005703
 **** Fit       0.005609
 **** Fit       0.005364
 **** Fit       0.004936
 **** Fit       0.004259
 **** Fit       0.005019
 **** Fit       0.005329
 **** Fit       0.005642
 **** Fit       0.005912
 **** Fit       0.006108
 **** Fit       0.006203
 **** Fit       0.006180
 **** Fit       0.006021
 **** Fit       0.005699
 **** Fit       0.005325
 **** Fit       0.005592
 **** Fit       0.005913
 **** Fit       0.006227
 **** Fit       0.006489
 **** Fit       0.006674
 **** Fit       0.006763
 **** Fit       0.006748
 **** Fit       0.006624
 **** Fit       0.005939
 **** Fit       0.006216
 **** Fit       0.006539
 **** Fit       0.006853
 **** Fit       0.007126
 **** Fit       0.007345
 **** Fit       0.007519
 **** Fit       0.007682
 **** Fit       0.006523
 **** Fit       0.006763
 **** Fit       0.007101
 **** Fit       0.007471
 **** Fit       0.007848
 **** Fit       0.008254
 **** Fit       0.008777
 **** Fit       0.007291
 **** Fit       0.007466
 **** Fit       0.007825
 **** Fit       0.008303
 **** Fit       0.008916
 **** Fit       0.009800
 **** Fit       0.008364
 **** Fit       0.008715
 **** Fit       0.009393
 **** Fit       0.009858
 **** Fit       0.005471
 **** Fit       0.005248
 **** Fit       0.005326
 **** Fit       0.005498
 **** Fit       0.005591
 **** Fit       0.005520
 **** Fit       0.005348
 **** Fit       0.004934
 **** Fit       0.004982
 **** Fit       0.005101
 **** Fit       0.005266
 **** Fit       0.005439
 **** Fit       0.005563
 **** Fit       0.005607
 **** Fit       0.005572
 **** Fit       0.005466
 **** Fit       0.005306
 **** Fit       0.005129
 **** Fit       0.004987
 **** Fit       0.004548
 **** Fit       0.004605
 **** Fit       0.004707
 **** Fit       0.004826
 **** Fit       0.004971
 **** Fit       0.005149
 **** Fit       0.005322
 **** Fit       0.005447
 **** Fit       0.005512
 **** Fit       0.005525
 **** Fit       0.005493
 **** Fit       0.005422
 **** Fit       0.005312
 **** Fit       0.005168
 **** Fit       0.004999
 **** Fit       0.004825
 **** Fit       0.004671
 **** Fit       0.004570
 **** Fit       0.004125
 **** Fit       0.004219
 **** Fit       0.004355
 **** Fit       0.004474
 **** Fit       0.004565
 **** Fit       0.004683
 **** Fit       0.004865
 **** Fit       0.005072
 **** Fit       0.005239
 **** Fit       0.005338
 **** Fit       0.005375
 **** Fit       0.005373
 **** Fit       0.005343
 **** Fit       0.005290
 **** Fit       0.005214
 **** Fit       0.005111
 **** Fit       0.004983
 **** Fit       0.004831
 **** Fit       0.004662
 **** Fit       0.004488
 **** Fit       0.004322
 **** Fit       0.004188
 **** Fit       0.004114
 **** Fit       0.003709
 **** Fit       0.003874
 **** Fit       0.004104
 **** Fit       0.004289
 **** Fit       0.004349
 **** Fit       0.004425
 **** Fit       0.004642
 **** Fit       0.004912
 **** Fit       0.005120
 **** Fit       0.005224
 **** Fit       0.005244
 **** Fit       0.005216
 **** Fit       0.005169
 **** Fit       0.005112
 **** Fit       0.005047
 **** Fit       0.004970
 **** Fit       0.004877
 **** Fit       0.004764
 **** Fit       0.004632
 **** Fit       0.004484
 **** Fit       0.004322
 **** Fit       0.004154
 **** Fit       0.003986
 **** Fit       0.003830
 **** Fit       0.003710
 **** Fit       0.003658
 **** Fit       0.005180
 **** Fit       0.005278
 **** Fit       0.005247
 **** Fit       0.005156
 **** Fit       0.005050
 **** Fit       0.004951
 **** Fit       0.004863
 **** Fit       0.004780
 **** Fit       0.004695
 **** Fit       0.004602
 **** Fit       0.004498
 **** Fit       0.004382
 **** Fit       0.004254
 **** Fit       0.004118
 **** Fit       0.003977
 **** Fit       0.003834
 **** Fit       0.003688
 **** Fit       0.003541
 **** Fit       0.003401
 **** Fit       0.003293
 **** Fit       0.005387
 **** Fit       0.005149
 **** Fit       0.004944
 **** Fit       0.004780
 **** Fit       0.004650
 **** Fit       0.004540
 **** Fit       0.004434
 **** Fit       0.004325
 **** Fit       0.004208
 **** Fit       0.004087
 **** Fit       0.003962
 **** Fit       0.003839
 **** Fit       0.003722
 **** Fit      -0.008475
 **** Fit      -0.005917
 **** Fit      -0.008899
 **** Fit      -0.004898
 **** Fit      -0.008241
 **** Fit      -0.003869
 **** Fit      -0.007343
 **** Fit      -0.004276
 **** Fit      -0.008552
 **** Fit      -0.001572
 **** Fit      -0.005048
 **** Fit      -0.009853
 **** Fit      -0.001372
 **** Fit      -0.004900
 **** Fit      -0.002968
 **** Fit      -0.006981
 **** Fit      -0.000810
 **** Fit      -0.004018
 **** Fit      -0.008135
 **** Fit      -0.002125
 **** Fit      -0.005217
 **** Fit      -0.002380
 **** Fit      -0.005081
 **** Fit      -0.008489
 **** Fit      -0.005389
 **** Fit      -0.008226
 **** Fit      -0.005682
 **** Fit      -0.007965
 **** Fit       0.018724
 **** Fit       0.015599
 **** Fit       0.012261
 **** Fit       0.024165
 **** Fit       0.020623
 **** Fit       0.017398
 **** Fit       0.014504
 **** Fit       0.011737
 **** Fit       0.025037
 **** Fit       0.021226
 **** Fit       0.018169
 **** Fit       0.015597
 **** Fit       0.013268
 **** Fit       0.010959
 **** Fit       0.028931
 **** Fit       0.024262
 **** Fit       0.020803
 **** Fit       0.018113
 **** Fit       0.015891
 **** Fit       0.013932
 **** Fit       0.012074
 **** Fit       0.026849
 **** Fit       0.022971
 **** Fit       0.020098
 **** Fit       0.017853
 **** Fit       0.016008
 **** Fit       0.014423
 **** Fit       0.013009
 **** Fit       0.011679
 **** Fit       0.027861
 **** Fit       0.023745
 **** Fit       0.020788
 **** Fit       0.018546
 **** Fit       0.016768
 **** Fit       0.015315
 **** Fit       0.014124
 **** Fit       0.013183
 **** Fit       0.012498
 **** Fit       0.027989
 **** Fit       0.023904
 **** Fit       0.020997
 **** Fit       0.018820
 **** Fit       0.017123
 **** Fit       0.015772
 **** Fit       0.014717
 **** Fit       0.013978
 **** Fit       0.013652
 **** Fit       0.026768
 **** Fit       0.023040
 **** Fit       0.020365
 **** Fit       0.018357
 **** Fit       0.016795
 **** Fit       0.015567
 **** Fit       0.014639
 **** Fit       0.014056
 **** Fit       0.013963
 **** Fit       0.024112
 **** Fit       0.021002
 **** Fit       0.018723
 **** Fit       0.016988
 **** Fit       0.015634
 **** Fit       0.014588
 **** Fit       0.013861
 **** Fit       0.013559
 **** Fit       0.024113
 **** Fit       0.020840
 **** Fit       0.018421
 **** Fit       0.016585
 **** Fit       0.015149
 **** Fit       0.014020
 **** Fit       0.013180
 **** Fit       0.012703
 **** Fit       0.012797
 **** Fit       0.022443
 **** Fit       0.019730
 **** Fit       0.017503
 **** Fit       0.015726
 **** Fit       0.014294
 **** Fit       0.013122
 **** Fit       0.012179
 **** Fit       0.011494
 **** Fit       0.011184
 **** Fit       0.016853
 **** Fit       0.015338
 **** Fit       0.013883
 **** Fit       0.012590
 **** Fit       0.011453
 **** Fit       0.010461
 **** Fit       0.009638
 **** Fit       0.011325
 **** Fit       0.010394
 **** Fit       0.009385
 **** Fit       0.008353
 **** Fit       0.002480
 **** Fit       0.000323
 **** Fit       0.006247
 **** Fit       0.004512
 **** Fit       0.002555
 **** Fit       0.000259
 **** Fit      -0.002447
 **** Fit      -0.005545
 **** Fit       0.009209
 **** Fit       0.007396
 **** Fit       0.005629
 **** Fit       0.003724
 **** Fit       0.001531
 **** Fit      -0.001077
 **** Fit      -0.004191
 **** Fit      -0.007836
 **** Fit       0.011945
 **** Fit       0.009833
 **** Fit       0.008051
 **** Fit       0.006354
 **** Fit       0.004557
 **** Fit       0.002509
 **** Fit       0.000075
 **** Fit      -0.002878
 **** Fit      -0.006483
 **** Fit      -0.010857
 **** Fit       0.013455
 **** Fit       0.011069
 **** Fit       0.009197
 **** Fit       0.007521
 **** Fit       0.005828
 **** Fit       0.003949
 **** Fit       0.001736
 **** Fit      -0.000966
 **** Fit      -0.004333
 **** Fit      -0.008596
 **** Fit       0.011709
 **** Fit       0.009848
 **** Fit       0.008245
 **** Fit       0.006681
 **** Fit       0.004991
 **** Fit       0.003032
 **** Fit       0.000660
 **** Fit      -0.002298
 **** Fit      -0.006068
 **** Fit      -0.010988
 **** Fit       0.013462
 **** Fit       0.011311
 **** Fit       0.009631
 **** Fit       0.008160
 **** Fit       0.006711
 **** Fit       0.005135
 **** Fit       0.003300
 **** Fit       0.001068
 **** Fit      -0.001728
 **** Fit      -0.005314
 **** Fit      -0.010036
 **** Fit       0.011382
 **** Fit       0.009773
 **** Fit       0.008390
 **** Fit       0.007063
 **** Fit       0.005649
 **** Fit       0.004016
 **** Fit       0.002027
 **** Fit      -0.000472
 **** Fit      -0.003691
 **** Fit      -0.007940
 **** Fit      -0.013738
 **** Fit       0.008865
 **** Fit       0.007753
 **** Fit       0.006617
 **** Fit       0.005358
 **** Fit       0.003860
 **** Fit       0.001993
 **** Fit      -0.000398
 **** Fit      -0.003521
 **** Fit      -0.007690
 **** Fit      -0.013424
 **** Fit       0.006379
 **** Fit       0.005615
 **** Fit       0.004623
 **** Fit       0.003343
 **** Fit       0.001674
 **** Fit      -0.000519
 **** Fit      -0.003422
 **** Fit      -0.007311
 **** Fit      -0.012622
 **** Fit       0.004086
 **** Fit       0.003750
 **** Fit       0.002964
 **** Fit       0.001721
 **** Fit      -0.000067
 **** Fit      -0.002547
 **** Fit      -0.005944
 **** Fit      -0.010593
 **** Fit       0.001481
 **** Fit       0.000983
 **** Fit      -0.000187
 **** Fit      -0.002086
 **** Fit      -0.004857
 **** Fit      -0.008714
 **** Fit      -0.001469
 **** Fit      -0.002812
 **** Fit      -0.005205
 **** Fit      -0.008742
 -----------------------------------------------------------------
 Leave Link  602 at Thu Jun 16 14:11:21 2016, MaxMem=   33554432 cpu:       6.1

 Test job not archived.
 1\1\GINC-NODE33\FOpt\RHF\6-31G(d)\C14H18N4O2S2\DAVE\16-Jun-2016\0\\#HF
 /6-31G* SCF=tight Test Pop=MK iop(6/33=2) iop(6/42=6) opt\\remark line
  goes here\\0,1\C,-4.5866936115,9.1210709488,12.9537095495\C,-3.253132
 8006,8.7972089647,12.9006331029\C,-3.4519700441,7.3351836407,14.814730
 0316\C,-5.3803702918,8.5505527362,13.9436408282\C,-2.676111518,7.90872
 07107,13.8227386453\C,-4.7993114253,7.6709757881,14.8470681684\C,-7.18
 9885586,8.1394024165,15.1094632688\C,-8.6746891036,8.359933737,19.6764
 087666\C,-8.5347186511,8.8104074977,18.221961416\C,-0.4919231576,6.821
 6815988,14.3789170923\C,1.7156098356,3.8059759809,13.3040090208\C,-8.9
 821821922,7.7190595576,17.2504440377\C,0.9565123799,6.8302585675,13.91
 72113148\C,1.8151926704,5.8173494186,14.6704839314\N,-6.7321747413,8.7
 948919819,14.1277425837\N,1.1213215581,2.5768869416,13.1590217941\N,-1
 .2977935087,7.6578775454,13.6715468274\N,1.4083352681,4.4440547064,14.
 4689565148\O,-0.8703016369,6.1383412453,15.2927648785\S,-6.0262682481,
 7.1177616537,15.9610013227\S,-8.9106471378,8.1804313785,15.4898382406\
 O,2.4332686949,4.2768111409,12.4606943585\H,0.5657894928,4.1815332403,
 14.9311105507\H,-0.8618977343,8.153757304,12.9273353272\H,0.9071238445
 ,2.0583611621,13.981897561\H,1.5014056851,2.0363383859,12.4137431628\H
 ,-7.5033381954,9.0805426678,18.0220594448\H,-9.1299023347,9.7011757543
 ,18.0496084062\H,2.8398541783,5.9152143332,14.3454857588\H,1.775925319
 1,6.018146591,15.7320601492\H,1.003640653,6.6263259838,12.8524208059\H
 ,1.3557924311,7.8314253029,14.0668079429\H,-10.0300250973,7.4871913912
 ,17.4048015905\H,-8.4372429843,6.7966036504,17.4099425681\H,-9.7036639
 415,8.1055071181,19.9139694052\H,-8.0606549744,7.4876218366,19.8800297
 774\H,-8.3641490404,9.1479577435,20.3543956392\H,-3.0250774779,6.65771
 42401,15.5217045755\H,-2.635653409,9.2339878415,12.1348715128\H,-5.020
 9931671,9.8027572955,12.2467701274\\Version=EM64L-G09RevC.01\State=1-A
 \HF=-1703.2444982\RMSD=9.250e-09\RMSF=3.924e-06\Dipole=0.1677659,-0.09
 90071,0.9184519\Quadrupole=-9.2509549,8.5767394,0.6742155,5.6575738,-4
 .3162702,-4.4082423\PG=C01 [X(C14H18N4O2S2)]\\@


 A MAN THINKING OR WORKING IS ALWAYS ALONE, 
 LET HIM BE WHERE HE WILL.

                                    -- THOREAU
 Job cpu time:  0 days  2 hours  2 minutes 55.8 seconds.
 File lengths (MBytes):  RWF=     99 Int=      0 D2E=      0 Chk=     11 Scr=      1
 Normal termination of Gaussian 09 at Thu Jun 16 14:11:22 2016.
