 Entering Gaussian System, Link 0=/usr/local/g09_c01/g09
 Initial command:
 /usr/local/g09_c01/l1.exe /scr/gf/dave/80831/Gau-3516.inp -scrdir=/scr/gf/dave/80831/
 Entering Link 1 = /usr/local/g09_c01/l1.exe PID=      3518.
  
 Copyright (c) 1988,1990,1992,1993,1995,1998,2003,2009,2011,
            Gaussian, Inc.  All Rights Reserved.
  
 This is part of the Gaussian(R) 09 program.  It is based on
 the Gaussian(R) 03 system (copyright 2003, Gaussian, Inc.),
 the Gaussian(R) 98 system (copyright 1998, Gaussian, Inc.),
 the Gaussian(R) 94 system (copyright 1995, Gaussian, Inc.),
 the Gaussian 92(TM) system (copyright 1992, Gaussian, Inc.),
 the Gaussian 90(TM) system (copyright 1990, Gaussian, Inc.),
 the Gaussian 88(TM) system (copyright 1988, Gaussian, Inc.),
 the Gaussian 86(TM) system (copyright 1986, Carnegie Mellon
 University), and the Gaussian 82(TM) system (copyright 1983,
 Carnegie Mellon University). Gaussian is a federally registered
 trademark of Gaussian, Inc.
  
 This software contains proprietary and confidential information,
 including trade secrets, belonging to Gaussian, Inc.
  
 This software is provided under written license and may be
 used, copied, transmitted, or stored only in accord with that
 written license.
  
 The following legend is applicable only to US Government
 contracts under FAR:
  
                    RESTRICTED RIGHTS LEGEND
  
 Use, reproduction and disclosure by the US Government is
 subject to restrictions as set forth in subparagraphs (a)
 and (c) of the Commercial Computer Software - Restricted
 Rights clause in FAR 52.227-19.
  
 Gaussian, Inc.
 340 Quinnipiac St., Bldg. 40, Wallingford CT 06492
  
  
 ---------------------------------------------------------------
 Warning -- This program may not be used in any manner that
 competes with the business of Gaussian, Inc. or will provide
 assistance to any competitor of Gaussian, Inc.  The licensee
 of this program is prohibited from giving any competitor of
 Gaussian, Inc. access to this program.  By using this program,
 the user acknowledges that Gaussian, Inc. is engaged in the
 business of creating and licensing software in the field of
 computational chemistry and represents and warrants to the
 licensee that it is not a competitor of Gaussian, Inc. and that
 it will not use this program in any manner prohibited above.
 ---------------------------------------------------------------
  

 Cite this work as:
 Gaussian 09, Revision C.01,
 M. J. Frisch, G. W. Trucks, H. B. Schlegel, G. E. Scuseria, 
 M. A. Robb, J. R. Cheeseman, G. Scalmani, V. Barone, B. Mennucci, 
 G. A. Petersson, H. Nakatsuji, M. Caricato, X. Li, H. P. Hratchian, 
 A. F. Izmaylov, J. Bloino, G. Zheng, J. L. Sonnenberg, M. Hada, 
 M. Ehara, K. Toyota, R. Fukuda, J. Hasegawa, M. Ishida, T. Nakajima, 
 Y. Honda, O. Kitao, H. Nakai, T. Vreven, J. A. Montgomery, Jr., 
 J. E. Peralta, F. Ogliaro, M. Bearpark, J. J. Heyd, E. Brothers, 
 K. N. Kudin, V. N. Staroverov, T. Keith, R. Kobayashi, J. Normand, 
 K. Raghavachari, A. Rendell, J. C. Burant, S. S. Iyengar, J. Tomasi, 
 M. Cossi, N. Rega, J. M. Millam, M. Klene, J. E. Knox, J. B. Cross, 
 V. Bakken, C. Adamo, J. Jaramillo, R. Gomperts, R. E. Stratmann, 
 O. Yazyev, A. J. Austin, R. Cammi, C. Pomelli, J. W. Ochterski, 
 R. L. Martin, K. Morokuma, V. G. Zakrzewski, G. A. Voth, 
 P. Salvador, J. J. Dannenberg, S. Dapprich, A. D. Daniels, 
 O. Farkas, J. B. Foresman, J. V. Ortiz, J. Cioslowski, 
 and D. J. Fox, Gaussian, Inc., Wallingford CT, 2010.
 
 ******************************************
 Gaussian 09:  EM64L-G09RevC.01 23-Sep-2011
                16-Jun-2016 
 ******************************************
 %chk=molecule
 ------------------------------------------------------------
 #HF/6-31G* SCF=tight Test Pop=MK iop(6/33=2) iop(6/42=6) opt
 ------------------------------------------------------------
 1/18=20,19=15,38=1/1,3;
 2/9=110,12=2,17=6,18=5,40=1/2;
 3/5=1,6=6,7=1,11=9,16=1,25=1,30=1,71=1/1,2,3;
 4//1;
 5/5=2,32=2,38=5/2;
 6/7=2,8=2,9=2,10=2,15=8,20=1,28=1,33=2,42=6/1,2;
 7//1,2,3,16;
 1/18=20,19=15/3(2);
 2/9=110/2;
 99//99;
 2/9=110/2;
 3/5=1,6=6,7=1,11=9,16=1,25=1,30=1,71=1/1,2,3;
 4/5=5,16=3/1;
 5/5=2,32=2,38=5/2;
 7//1,2,3,16;
 1/18=20,19=15/3(-5);
 2/9=110/2;
 6/7=2,8=2,9=2,10=2,15=8,19=2,20=1,28=1,33=2,42=6/1,2;
 99/9=1/99;
 ---------------------
 remark line goes here
 ---------------------
 Charge =  0 Multiplicity = 1
 Symbolic Z-Matrix:
 C                     1.386     1.963     9.405 
 C                    -4.682     9.306     12.916 
 C                    -3.308     9.162     12.802 
 C                     2.182     2.054     10.672 
 C                    -3.253     7.706     14.739 
 C                    -5.357     8.651     13.95 
 C                    -2.595     8.35      13.691 
 C                    -4.626     7.871     14.853 
 C                    -7.036     8.056     15.295 
 C                    -0.508     6.985     13.675 
 C                     2.061     4.032     12.135 
 C                    -8.405     7.995     15.908 
 C                     0.929     7.063     13.194 
 C                     1.784     5.917     13.7 
 N                    -6.724     8.729     14.213 
 N                     1.522     2.88      11.687 
 N                    -1.213     8.123     13.472 
 N                     1.373     4.643     13.123 
 O                    -0.978     5.963     14.196 
 O                     3.114     4.494     11.677 
 S                    -5.69      7.237     16.074 
 H                     0.546     4.203     13.473 
 H                    -0.693     8.902     13.123 
 H                     0.644     2.579     12.059 
 H                     2.834     6.108     13.431 
 H                     1.692     5.859     14.795 
 H                     0.932     7.044     12.094 
 H                     1.366     8.009     13.545 
 H                    -8.732     6.947     15.971 
 H                    -8.375     8.432     16.917 
 H                    -9.111     8.563     15.284 
 H                    -2.706     7.092     15.445 
 H                     3.163     2.495     10.442 
 H                     2.321     1.041     11.076 
 H                    -2.779     9.686     12.014 
 H                    -5.228     9.921     12.209 
 H                     0.404     1.516     9.62 
 H                     1.247     2.97      8.986 
 H                     1.924     1.335     8.679 
 

 GradGradGradGradGradGradGradGradGradGradGradGradGradGradGradGradGradGrad
 Berny optimization.
 Initialization pass.
                           ----------------------------
                           !    Initial Parameters    !
                           ! (Angstroms and Degrees)  !
 --------------------------                            --------------------------
 ! Name  Definition              Value          Derivative Info.                !
 --------------------------------------------------------------------------------
 ! R1    R(1,4)                  1.4991         estimate D2E/DX2                !
 ! R2    R(1,37)                 1.1002         estimate D2E/DX2                !
 ! R3    R(1,38)                 1.0995         estimate D2E/DX2                !
 ! R4    R(1,39)                 1.1004         estimate D2E/DX2                !
 ! R5    R(2,3)                  1.3862         estimate D2E/DX2                !
 ! R6    R(2,6)                  1.3978         estimate D2E/DX2                !
 ! R7    R(2,36)                 1.0845         estimate D2E/DX2                !
 ! R8    R(3,7)                  1.3993         estimate D2E/DX2                !
 ! R9    R(3,35)                 1.0841         estimate D2E/DX2                !
 ! R10   R(4,16)                 1.4656         estimate D2E/DX2                !
 ! R11   R(4,33)                 1.0999         estimate D2E/DX2                !
 ! R12   R(4,34)                 1.0994         estimate D2E/DX2                !
 ! R13   R(5,7)                  1.395          estimate D2E/DX2                !
 ! R14   R(5,8)                  1.3876         estimate D2E/DX2                !
 ! R15   R(5,32)                 1.0838         estimate D2E/DX2                !
 ! R16   R(6,8)                  1.3993         estimate D2E/DX2                !
 ! R17   R(6,15)                 1.3943         estimate D2E/DX2                !
 ! R18   R(7,17)                 1.4175         estimate D2E/DX2                !
 ! R19   R(8,21)                 1.7392         estimate D2E/DX2                !
 ! R20   R(9,12)                 1.5012         estimate D2E/DX2                !
 ! R21   R(9,15)                 1.3119         estimate D2E/DX2                !
 ! R22   R(9,21)                 1.7576         estimate D2E/DX2                !
 ! R23   R(10,13)                1.5174         estimate D2E/DX2                !
 ! R24   R(10,17)                1.354          estimate D2E/DX2                !
 ! R25   R(10,19)                1.2397         estimate D2E/DX2                !
 ! R26   R(11,16)                1.3485         estimate D2E/DX2                !
 ! R27   R(11,18)                1.3501         estimate D2E/DX2                !
 ! R28   R(11,20)                1.2377         estimate D2E/DX2                !
 ! R29   R(12,29)                1.0996         estimate D2E/DX2                !
 ! R30   R(12,30)                1.1            estimate D2E/DX2                !
 ! R31   R(12,31)                1.1002         estimate D2E/DX2                !
 ! R32   R(13,14)                1.5167         estimate D2E/DX2                !
 ! R33   R(13,27)                1.1002         estimate D2E/DX2                !
 ! R34   R(13,28)                1.0996         estimate D2E/DX2                !
 ! R35   R(14,18)                1.4577         estimate D2E/DX2                !
 ! R36   R(14,25)                1.1006         estimate D2E/DX2                !
 ! R37   R(14,26)                1.1004         estimate D2E/DX2                !
 ! R38   R(16,24)                0.9999         estimate D2E/DX2                !
 ! R39   R(17,23)                0.9995         estimate D2E/DX2                !
 ! R40   R(18,22)                1.0            estimate D2E/DX2                !
 ! A1    A(4,1,37)             109.4788         estimate D2E/DX2                !
 ! A2    A(4,1,38)             109.4884         estimate D2E/DX2                !
 ! A3    A(4,1,39)             109.43           estimate D2E/DX2                !
 ! A4    A(37,1,38)            109.4964         estimate D2E/DX2                !
 ! A5    A(37,1,39)            109.4786         estimate D2E/DX2                !
 ! A6    A(38,1,39)            109.4551         estimate D2E/DX2                !
 ! A7    A(3,2,6)              119.3936         estimate D2E/DX2                !
 ! A8    A(3,2,36)             120.2852         estimate D2E/DX2                !
 ! A9    A(6,2,36)             120.3212         estimate D2E/DX2                !
 ! A10   A(2,3,7)              120.8694         estimate D2E/DX2                !
 ! A11   A(2,3,35)             119.5517         estimate D2E/DX2                !
 ! A12   A(7,3,35)             119.579          estimate D2E/DX2                !
 ! A13   A(1,4,16)             112.3596         estimate D2E/DX2                !
 ! A14   A(1,4,33)             108.7357         estimate D2E/DX2                !
 ! A15   A(1,4,34)             108.7709         estimate D2E/DX2                !
 ! A16   A(16,4,33)            108.6927         estimate D2E/DX2                !
 ! A17   A(16,4,34)            108.7676         estimate D2E/DX2                !
 ! A18   A(33,4,34)            109.4822         estimate D2E/DX2                !
 ! A19   A(7,5,8)              118.2656         estimate D2E/DX2                !
 ! A20   A(7,5,32)             120.8537         estimate D2E/DX2                !
 ! A21   A(8,5,32)             120.8806         estimate D2E/DX2                !
 ! A22   A(2,6,8)              119.097          estimate D2E/DX2                !
 ! A23   A(2,6,15)             125.9296         estimate D2E/DX2                !
 ! A24   A(8,6,15)             114.9379         estimate D2E/DX2                !
 ! A25   A(3,7,5)              120.3205         estimate D2E/DX2                !
 ! A26   A(3,7,17)             119.4419         estimate D2E/DX2                !
 ! A27   A(5,7,17)             120.1323         estimate D2E/DX2                !
 ! A28   A(5,8,6)              122.0168         estimate D2E/DX2                !
 ! A29   A(5,8,21)             128.2924         estimate D2E/DX2                !
 ! A30   A(6,8,21)             109.6721         estimate D2E/DX2                !
 ! A31   A(12,9,15)            125.0656         estimate D2E/DX2                !
 ! A32   A(12,9,21)            119.8969         estimate D2E/DX2                !
 ! A33   A(15,9,21)            114.9901         estimate D2E/DX2                !
 ! A34   A(13,10,17)           113.7267         estimate D2E/DX2                !
 ! A35   A(13,10,19)           122.32           estimate D2E/DX2                !
 ! A36   A(17,10,19)           123.952          estimate D2E/DX2                !
 ! A37   A(16,11,18)           115.2175         estimate D2E/DX2                !
 ! A38   A(16,11,20)           122.4117         estimate D2E/DX2                !
 ! A39   A(18,11,20)           122.3702         estimate D2E/DX2                !
 ! A40   A(9,12,29)            109.4692         estimate D2E/DX2                !
 ! A41   A(9,12,30)            109.4843         estimate D2E/DX2                !
 ! A42   A(9,12,31)            109.4274         estimate D2E/DX2                !
 ! A43   A(29,12,30)           109.5228         estimate D2E/DX2                !
 ! A44   A(29,12,31)           109.4934         estimate D2E/DX2                !
 ! A45   A(30,12,31)           109.4302         estimate D2E/DX2                !
 ! A46   A(10,13,14)           112.909          estimate D2E/DX2                !
 ! A47   A(10,13,27)           108.5808         estimate D2E/DX2                !
 ! A48   A(10,13,28)           108.6272         estimate D2E/DX2                !
 ! A49   A(14,13,27)           108.6014         estimate D2E/DX2                !
 ! A50   A(14,13,28)           108.6339         estimate D2E/DX2                !
 ! A51   A(27,13,28)           109.4471         estimate D2E/DX2                !
 ! A52   A(13,14,18)           111.6766         estimate D2E/DX2                !
 ! A53   A(13,14,25)           108.9739         estimate D2E/DX2                !
 ! A54   A(13,14,26)           108.9462         estimate D2E/DX2                !
 ! A55   A(18,14,25)           108.8995         estimate D2E/DX2                !
 ! A56   A(18,14,26)           108.9201         estimate D2E/DX2                !
 ! A57   A(25,14,26)           109.3977         estimate D2E/DX2                !
 ! A58   A(6,15,9)             111.1038         estimate D2E/DX2                !
 ! A59   A(4,16,11)            122.1104         estimate D2E/DX2                !
 ! A60   A(4,16,24)            118.9072         estimate D2E/DX2                !
 ! A61   A(11,16,24)           118.9824         estimate D2E/DX2                !
 ! A62   A(7,17,10)            128.2475         estimate D2E/DX2                !
 ! A63   A(7,17,23)            115.8709         estimate D2E/DX2                !
 ! A64   A(10,17,23)           115.8816         estimate D2E/DX2                !
 ! A65   A(11,18,14)           122.7861         estimate D2E/DX2                !
 ! A66   A(11,18,22)           118.5825         estimate D2E/DX2                !
 ! A67   A(14,18,22)           118.6314         estimate D2E/DX2                !
 ! A68   A(8,21,9)              89.2829         estimate D2E/DX2                !
 ! D1    D(37,1,4,16)          -60.0594         estimate D2E/DX2                !
 ! D2    D(37,1,4,33)          179.5789         estimate D2E/DX2                !
 ! D3    D(37,1,4,34)           60.42           estimate D2E/DX2                !
 ! D4    D(38,1,4,16)           59.9867         estimate D2E/DX2                !
 ! D5    D(38,1,4,33)          -60.375          estimate D2E/DX2                !
 ! D6    D(38,1,4,34)         -179.5339         estimate D2E/DX2                !
 ! D7    D(39,1,4,16)          179.9522         estimate D2E/DX2                !
 ! D8    D(39,1,4,33)           59.5905         estimate D2E/DX2                !
 ! D9    D(39,1,4,34)          -59.5684         estimate D2E/DX2                !
 ! D10   D(6,2,3,7)              1.2788         estimate D2E/DX2                !
 ! D11   D(6,2,3,35)          -178.6817         estimate D2E/DX2                !
 ! D12   D(36,2,3,7)          -178.6977         estimate D2E/DX2                !
 ! D13   D(36,2,3,35)            1.3418         estimate D2E/DX2                !
 ! D14   D(3,2,6,8)              0.4367         estimate D2E/DX2                !
 ! D15   D(3,2,6,15)           178.1523         estimate D2E/DX2                !
 ! D16   D(36,2,6,8)          -179.5869         estimate D2E/DX2                !
 ! D17   D(36,2,6,15)           -1.8713         estimate D2E/DX2                !
 ! D18   D(2,3,7,5)             -2.2157         estimate D2E/DX2                !
 ! D19   D(2,3,7,17)           174.0591         estimate D2E/DX2                !
 ! D20   D(35,3,7,5)           177.7447         estimate D2E/DX2                !
 ! D21   D(35,3,7,17)           -5.9804         estimate D2E/DX2                !
 ! D22   D(1,4,16,11)         -115.9434         estimate D2E/DX2                !
 ! D23   D(1,4,16,24)           64.0724         estimate D2E/DX2                !
 ! D24   D(33,4,16,11)           4.4431         estimate D2E/DX2                !
 ! D25   D(33,4,16,24)        -175.541          estimate D2E/DX2                !
 ! D26   D(34,4,16,11)         123.5752         estimate D2E/DX2                !
 ! D27   D(34,4,16,24)         -56.4089         estimate D2E/DX2                !
 ! D28   D(8,5,7,3)              1.3707         estimate D2E/DX2                !
 ! D29   D(8,5,7,17)          -174.8783         estimate D2E/DX2                !
 ! D30   D(32,5,7,3)          -178.6936         estimate D2E/DX2                !
 ! D31   D(32,5,7,17)            5.0574         estimate D2E/DX2                !
 ! D32   D(7,5,8,6)              0.3602         estimate D2E/DX2                !
 ! D33   D(7,5,8,21)          -177.8975         estimate D2E/DX2                !
 ! D34   D(32,5,8,6)          -179.5755         estimate D2E/DX2                !
 ! D35   D(32,5,8,21)            2.1668         estimate D2E/DX2                !
 ! D36   D(2,6,8,5)             -1.2715         estimate D2E/DX2                !
 ! D37   D(2,6,8,21)           177.2763         estimate D2E/DX2                !
 ! D38   D(15,6,8,5)          -179.2316         estimate D2E/DX2                !
 ! D39   D(15,6,8,21)           -0.6837         estimate D2E/DX2                !
 ! D40   D(2,6,15,9)          -176.5844         estimate D2E/DX2                !
 ! D41   D(8,6,15,9)             1.2142         estimate D2E/DX2                !
 ! D42   D(3,7,17,10)         -142.6935         estimate D2E/DX2                !
 ! D43   D(3,7,17,23)           37.2791         estimate D2E/DX2                !
 ! D44   D(5,7,17,10)           33.5885         estimate D2E/DX2                !
 ! D45   D(5,7,17,23)         -146.4389         estimate D2E/DX2                !
 ! D46   D(5,8,21,9)           178.445          estimate D2E/DX2                !
 ! D47   D(6,8,21,9)             0.0137         estimate D2E/DX2                !
 ! D48   D(15,9,12,29)         122.5686         estimate D2E/DX2                !
 ! D49   D(15,9,12,30)        -117.3614         estimate D2E/DX2                !
 ! D50   D(15,9,12,31)           2.5695         estimate D2E/DX2                !
 ! D51   D(21,9,12,29)         -60.0645         estimate D2E/DX2                !
 ! D52   D(21,9,12,30)          60.0055         estimate D2E/DX2                !
 ! D53   D(21,9,12,31)         179.9364         estimate D2E/DX2                !
 ! D54   D(12,9,15,6)          176.2864         estimate D2E/DX2                !
 ! D55   D(21,9,15,6)           -1.1952         estimate D2E/DX2                !
 ! D56   D(12,9,21,8)         -176.9219         estimate D2E/DX2                !
 ! D57   D(15,9,21,8)            0.7004         estimate D2E/DX2                !
 ! D58   D(17,10,13,14)        167.0951         estimate D2E/DX2                !
 ! D59   D(17,10,13,27)        -72.4139         estimate D2E/DX2                !
 ! D60   D(17,10,13,28)         46.5312         estimate D2E/DX2                !
 ! D61   D(19,10,13,14)        -13.3083         estimate D2E/DX2                !
 ! D62   D(19,10,13,27)        107.1827         estimate D2E/DX2                !
 ! D63   D(19,10,13,28)       -133.8723         estimate D2E/DX2                !
 ! D64   D(13,10,17,7)         173.9352         estimate D2E/DX2                !
 ! D65   D(13,10,17,23)         -6.0374         estimate D2E/DX2                !
 ! D66   D(19,10,17,7)          -5.6538         estimate D2E/DX2                !
 ! D67   D(19,10,17,23)        174.3736         estimate D2E/DX2                !
 ! D68   D(18,11,16,4)        -176.4596         estimate D2E/DX2                !
 ! D69   D(18,11,16,24)          3.5246         estimate D2E/DX2                !
 ! D70   D(20,11,16,4)           3.274          estimate D2E/DX2                !
 ! D71   D(20,11,16,24)       -176.7418         estimate D2E/DX2                !
 ! D72   D(16,11,18,14)       -178.0553         estimate D2E/DX2                !
 ! D73   D(16,11,18,22)          1.89           estimate D2E/DX2                !
 ! D74   D(20,11,18,14)          2.211          estimate D2E/DX2                !
 ! D75   D(20,11,18,22)       -177.8438         estimate D2E/DX2                !
 ! D76   D(10,13,14,18)         67.3059         estimate D2E/DX2                !
 ! D77   D(10,13,14,25)       -172.3466         estimate D2E/DX2                !
 ! D78   D(10,13,14,26)        -53.0489         estimate D2E/DX2                !
 ! D79   D(27,13,14,18)        -53.1734         estimate D2E/DX2                !
 ! D80   D(27,13,14,25)         67.1741         estimate D2E/DX2                !
 ! D81   D(27,13,14,26)       -173.5282         estimate D2E/DX2                !
 ! D82   D(28,13,14,18)       -172.134          estimate D2E/DX2                !
 ! D83   D(28,13,14,25)        -51.7865         estimate D2E/DX2                !
 ! D84   D(28,13,14,26)         67.5111         estimate D2E/DX2                !
 ! D85   D(13,14,18,11)        103.7022         estimate D2E/DX2                !
 ! D86   D(13,14,18,22)        -76.2431         estimate D2E/DX2                !
 ! D87   D(25,14,18,11)        -16.6889         estimate D2E/DX2                !
 ! D88   D(25,14,18,22)        163.3659         estimate D2E/DX2                !
 ! D89   D(26,14,18,11)       -135.9277         estimate D2E/DX2                !
 ! D90   D(26,14,18,22)         44.1271         estimate D2E/DX2                !
 --------------------------------------------------------------------------------
 Trust Radius=3.00D-01 FncErr=1.00D-07 GrdErr=1.00D-07
 Number of steps in this run=    208 maximum allowed number of steps=    234.
 GradGradGradGradGradGradGradGradGradGradGradGradGradGradGradGradGradGrad

                          Input orientation:                          
 ---------------------------------------------------------------------
 Center     Atomic      Atomic             Coordinates (Angstroms)
 Number     Number       Type             X           Y           Z
 ---------------------------------------------------------------------
      1          6           0        1.386000    1.963000    9.405000
      2          6           0       -4.682000    9.306000   12.916000
      3          6           0       -3.308000    9.162000   12.802000
      4          6           0        2.182000    2.054000   10.672000
      5          6           0       -3.253000    7.706000   14.739000
      6          6           0       -5.357000    8.651000   13.950000
      7          6           0       -2.595000    8.350000   13.691000
      8          6           0       -4.626000    7.871000   14.853000
      9          6           0       -7.036000    8.056000   15.295000
     10          6           0       -0.508000    6.985000   13.675000
     11          6           0        2.061000    4.032000   12.135000
     12          6           0       -8.405000    7.995000   15.908000
     13          6           0        0.929000    7.063000   13.194000
     14          6           0        1.784000    5.917000   13.700000
     15          7           0       -6.724000    8.729000   14.213000
     16          7           0        1.522000    2.880000   11.687000
     17          7           0       -1.213000    8.123000   13.472000
     18          7           0        1.373000    4.643000   13.123000
     19          8           0       -0.978000    5.963000   14.196000
     20          8           0        3.114000    4.494000   11.677000
     21         16           0       -5.690000    7.237000   16.074000
     22          1           0        0.546000    4.203000   13.473000
     23          1           0       -0.693000    8.902000   13.123000
     24          1           0        0.644000    2.579000   12.059000
     25          1           0        2.834000    6.108000   13.431000
     26          1           0        1.692000    5.859000   14.795000
     27          1           0        0.932000    7.044000   12.094000
     28          1           0        1.366000    8.009000   13.545000
     29          1           0       -8.732000    6.947000   15.971000
     30          1           0       -8.375000    8.432000   16.917000
     31          1           0       -9.111000    8.563000   15.284000
     32          1           0       -2.706000    7.092000   15.445000
     33          1           0        3.163000    2.495000   10.442000
     34          1           0        2.321000    1.041000   11.076000
     35          1           0       -2.779000    9.686000   12.014000
     36          1           0       -5.228000    9.921000   12.209000
     37          1           0        0.404000    1.516000    9.620000
     38          1           0        1.247000    2.970000    8.986000
     39          1           0        1.924000    1.335000    8.679000
 ---------------------------------------------------------------------
                    Distance matrix (angstroms):
                    1          2          3          4          5
     1  C    0.000000
     2  C   10.152211   0.000000
     3  C    9.241150   1.386221   0.000000
     4  C    1.499062  10.234331   9.230421   0.000000
     5  C    9.107905   2.815203   2.423825   8.833166   0.000000
     6  C   10.528742   1.397786   2.403628  10.540503   2.437696
     7  C    8.660943   2.422835   1.399298   8.460124   1.394992
     8  C   10.036399   2.411292   2.758696   9.882667   1.387570
     9  C   11.947671   3.572598   4.619120  11.931792   3.839626
    10  C    6.858616   4.835845   3.652596   6.369370   3.031000
    11  C    3.491316   8.596109   7.455733   2.463228   6.965464
    12  C   13.211272   4.952930   6.081820  13.221034   5.290859
    13  C    6.369880   6.049104   4.744643   5.746353   4.504398
    14  C    5.851457   7.342284   6.104498   4.924425   5.445311
    15  N   11.604642   2.486946   3.721218  11.679518   3.656644
    16  N    2.463110   9.016293   8.002228   1.465640   7.443494
    17  N    7.825656   3.707099   2.432580   7.496585   2.437371
    18  N    4.583240   7.645224   6.514304   3.655790   5.778694
    19  O    6.673993   5.151084   4.195919   6.138767   2.916937
    20  O    3.814961   9.244895   8.018599   2.798616   7.760894
    21  S   11.061664   3.907658   4.481689  10.863401   2.818006
    22  H    4.719303   7.326858   6.316268   3.891054   5.320354
    23  H    8.142204   4.014746   2.647426   7.821006   3.255069
    24  H    2.823780   8.622833   7.714029   2.136548   6.975324
    25  H    5.957047   8.184295   6.888158   4.946928   6.427755
    26  H    6.657669   7.486009   6.315208   5.631807   5.278974
    27  H    5.766576   6.108136   4.792159   5.337104   4.994847
    28  H    7.327627   6.217407   4.871112   6.661982   4.780440
    29  H   13.050921   5.594677   6.660973  13.081905   5.666864
    30  H   13.912413   5.514538   6.568151  13.824947   5.612989
    31  H   13.722596   5.076959   6.339869  13.826405   5.945388
    32  H    8.918111   3.899002   3.410682   8.488552   1.083809
    33  H    2.125117  10.679626   9.586049   1.099883   9.315782
    34  H    2.125218  10.988077  10.030721   1.099412   9.429171
    35  H    9.154170   2.139956   1.084141   9.201082   3.401573
    36  H   10.720876   1.084523   2.148053  10.916050   3.899712
    37  H    1.100163   9.869909   9.075538   2.134814   8.825753
    38  H    1.099514   9.525903   8.582001   2.134450   8.704982
    39  H    1.100411  11.186074  10.277883   2.134379  10.203655
                    6          7          8          9         10
     6  C    0.000000
     7  C    2.790399   0.000000
     8  C    1.399346   2.388440   0.000000
     9  C    2.232060   4.730934   2.457171   0.000000
    10  C    5.134587   2.493802   4.373855   6.810743   0.000000
    11  C    8.925027   6.537935   8.175660  10.437125   4.206135
    12  C    3.681631   6.228741   3.925461   1.501217   8.268555
    13  C    6.527410   3.784436   5.853475   8.297076   1.517371
    14  C    7.650564   5.009512   6.799678   9.214757   2.528737
    15  N    1.394253   4.179087   2.355285   1.311868   6.478398
    16  N    9.259927   7.133485   8.528279  10.632403   4.992401
    17  N    4.204760   1.417538   3.690425   6.102061   1.353986
    18  N    7.876604   5.459807   7.028576   9.331529   3.054149
    19  O    5.144074   2.927026   4.168935   6.502908   1.239687
    20  O    9.705927   7.177577   9.022123  11.349021   4.828661
    21  S    2.573259   4.061586   1.739222   1.757646   5.715928
    22  H    7.406594   5.206824   6.489084   8.697817   2.981819
    23  H    4.743398   2.060323   4.418637   6.757733   2.003452
    24  H    8.743973   6.816083   7.973995   9.972544   4.832328
    25  H    8.592362   5.879473   7.796272  10.231623   3.463759
    26  H    7.628741   5.079593   6.630885   9.014144   2.713351
    27  H    6.751200   4.086046   6.259982   8.646362   2.139309
    28  H    6.765716   3.978331   6.134653   8.582442   2.139475
    29  H    4.287037   6.695489   4.354645   2.136182   8.538573
    30  H    4.237850   6.619834   4.316227   2.136628   8.630994
    31  H    3.984949   6.711280   4.558492   2.136070   8.893288
    32  H    3.419548   2.161342   2.154926   4.438547   2.824102
    33  H   11.081191   8.831285  10.441591  12.589517   6.639927
    34  H   11.185869   9.188404  10.448705  12.432362   7.077371
    35  H    3.386060   2.151995   3.842597   5.616397   3.900226
    36  H    2.158847   3.405445   3.399359   4.033669   5.748709
    37  H   10.141314   8.501212   9.647342  11.416253   6.869114
    38  H   10.026359   8.114332   9.640208  11.587880   6.417708
    39  H   11.589662   9.734050  11.123851  13.008647   7.924465
                   11         12         13         14         15
    11  C    0.000000
    12  C   11.810083   0.000000
    13  C    3.404389   9.765141   0.000000
    14  C    2.465599  10.630572   1.516699   0.000000
    15  N   10.176253   2.497507   7.898248   8.975332   0.000000
    16  N    1.348454  11.938400   4.485553   3.652969  10.420556
    17  N    5.407673   7.594428   2.406044   3.728328   5.593517
    18  N    1.350114  10.705205   2.461418   1.457713   9.134818
    19  O    4.148735   7.887984   2.418812   2.806559   6.377112
    20  O    1.237747  12.761102   3.698010   2.808266  11.006942
    21  S    9.266377   2.823711   7.220515   7.952292   2.599719
    22  H    2.028475  10.021422   2.898988   2.126492   8.595649
    23  H    5.681334   8.249474   2.453130   3.921566   6.131149
    24  H    2.030979  11.226409   4.634189   3.890337   9.836139
    25  H    2.566500  11.662393   2.144113   1.100610   9.941656
    26  H    3.248029  10.380302   2.143592   1.100388   8.910930
    27  H    3.216903  10.130675   1.100168   2.138988   8.120574
    28  H    4.276407  10.052682   1.099584   2.138975   8.149400
    29  H   11.819516   1.099637  10.052866  10.807618   3.209073
    30  H   12.293804   1.099977  10.114312  10.948954   3.182079
    31  H   12.460327   1.100198  10.364348  11.323047   2.621520
    32  H    6.560792   5.788642   4.275636   4.958402   4.510201
    33  H    2.538311  13.926442   5.781945   4.922021  12.281529
    34  H    3.183577  13.665775   6.533611   5.563193  12.278361
    35  H    7.443652   7.048021   4.692738   6.153773   4.616760
    36  H    9.370983   5.242653   6.859084   8.211166   2.770360
    37  H    3.924427  12.614074   6.619540   6.157889  11.132448
    38  H    3.421497  12.896737   5.878864   5.585246  11.136627
    39  H    4.385945  14.258411   7.361062   6.798880  12.652442
                   16         17         18         19         20
    16  N    0.000000
    17  N    6.177014   0.000000
    18  N    2.278698   4.349666   0.000000
    19  O    4.695740   2.290197   2.901884   0.000000
    20  O    2.267060   5.925757   2.268082   5.024718   0.000000
    21  S    9.499587   5.253468   8.082277   5.230000  10.216069
    22  H    2.427489   4.296566   1.000014   2.437807   3.147208
    23  H    6.575166   0.999521   4.733649   3.141699   6.001219
    24  H    0.999934   6.015061   2.433851   4.318461   3.148658
    25  H    3.896519   4.521075   2.091796   3.890706   2.399982
    26  H    4.308481   3.913445   2.091889   2.738342   3.688798
    27  H    4.225239   2.768420   2.649174   3.038925   3.381939
    28  H    5.457393   2.582550   3.392357   3.178719   4.347431
    29  H   11.833751   8.010202  10.748514   8.015198  12.836797
    30  H   12.495128   7.953474  11.125397   8.259262  13.227342
    31  H   12.581557   8.115131  11.399587   8.607522  13.379755
    32  H    7.052623   2.680436   5.294103   2.412597   7.404041
    33  H    2.095503   7.746267   3.873728   6.577798   2.350240
    34  H    2.096102   8.269504   4.250096   6.696558   3.593502
    35  H    8.057740   2.649734   6.625770   4.676051   7.861163
    36  H    9.767838   4.576920   8.500934   6.138113   9.966159
    37  H    2.717151   7.816971   4.794591   6.528821   4.521486
    38  H    2.716455   7.261488   4.464255   6.407244   3.612443
    39  H    3.405392   8.882036   5.567369   7.763844   4.514796
                   21         22         23         24         25
    21  S    0.000000
    22  H    7.406622   0.000000
    23  H    6.037436   4.872189   0.000000
    24  H    8.828179   2.155545   6.549809   0.000000
    25  H    8.995480   2.977538   4.510103   4.374051   0.000000
    26  H    7.617654   2.409011   4.212322   4.398000   1.796291
    27  H    7.728424   3.181496   2.674253   4.474415   2.506246
    28  H    7.535182   3.893998   2.283641   5.675771   2.404542
    29  H    3.057527   9.992538   8.749780  11.058596  11.871305
    30  H    3.057433  10.456090   8.580703  11.798311  11.966405
    31  H    3.753081  10.749278   8.697561  11.889866  12.334653
    32  H    3.053019   4.776045   3.566504   6.561605   5.976291
    33  H   11.514408   4.353494   7.943938   2.994513   4.700652
    34  H   11.293650   4.346778   8.664279   2.478722   5.611032
    35  H    5.563733   6.576290   2.489163   7.888498   6.805567
    36  H    4.728163   8.223886   4.737086   9.402545   9.001561
    37  H   10.560341   4.699547   8.247873   2.671384   6.443220
    38  H   10.796713   4.705832   7.487790   3.155918   5.667772
    39  H   12.144654   5.753846   9.157364   3.822347   6.796406
                   26         27         28         29         30
    26  H    0.000000
    27  H    3.045854   0.000000
    28  H    2.508242   1.795823   0.000000
    29  H   10.546397  10.413138  10.439489   0.000000
    30  H   10.605079  10.573936  10.316802   1.796549   0.000000
    31  H   11.146997  10.646375  10.634781   1.796404   1.795981
    32  H    4.613588   4.946367   4.586074   6.050651   6.008323
    33  H    5.694642   5.329152   6.577387  13.852118  14.501691
    34  H    6.118801   6.245130   7.453926  13.454021  14.253020
    35  H    6.509204   4.556104   4.726237   7.654945   7.545008
    36  H    8.430518   6.799702   6.994389   5.939304   5.855424
    37  H    6.877588   6.079329   7.647883  12.381335  13.347213
    38  H    6.502986   5.133845   6.796335  12.813555  13.613122
    39  H    7.610904   6.725992   8.278381  14.078997  14.976697
                   31         32         33         34         35
    31  H    0.000000
    32  H    6.573719   0.000000
    33  H   14.522970   8.978172   0.000000
    34  H   14.317066   8.998527   1.795839   0.000000
    35  H    7.214448   4.301851   9.459864  10.080966   0.000000
    36  H    5.135901   4.983515  11.343573  11.710059   2.467965
    37  H   13.125408   8.642598   3.040757   2.453661   9.089094
    38  H   13.350454   8.621820   2.452879   3.040167   8.395363
    39  H   14.752669  10.017919   2.447221   2.447377  10.147888
                   36         37         38         39
    36  H    0.000000
    37  H   10.443485   0.000000
    38  H   10.031438   1.796308   0.000000
    39  H   11.718848   1.796842   1.796052   0.000000
 Stoichiometry    C14H18N4O2S
 Framework group  C1[X(C14H18N4O2S)]
 Deg. of freedom   111
 Full point group                 C1      NOp   1
 Largest Abelian subgroup         C1      NOp   1
 Largest concise Abelian subgroup C1      NOp   1
                         Standard orientation:                         
 ---------------------------------------------------------------------
 Center     Atomic      Atomic             Coordinates (Angstroms)
 Number     Number       Type             X           Y           Z
 ---------------------------------------------------------------------
      1          6           0        6.216798    2.554739    1.626465
      2          6           0       -3.343881   -0.839230    2.003014
      3          6           0       -2.116476   -1.437330    1.763512
      4          6           0        6.382664    1.857030    0.310078
      5          6           0       -2.075897   -0.557511   -0.494629
      6          6           0       -3.953368   -0.094122    0.989532
      7          6           0       -1.470332   -1.282219    0.532061
      8          6           0       -3.312165    0.022615   -0.248774
      9          6           0       -5.518287    1.090331   -0.073571
     10          6           0        0.867543   -1.263109   -0.335710
     11          6           0        4.862098    0.052704   -0.396872
     12          6           0       -6.821117    1.778746   -0.360573
     13          6           0        2.172004   -2.022467   -0.180244
     14          6           0        3.221524   -1.606695   -1.193170
     15          7           0       -5.196594    0.531975    1.069122
     16          7           0        5.109423    1.367178   -0.225649
     17          7           0       -0.161530   -1.799420    0.361898
     18          7           0        3.674519   -0.239441   -0.968813
     19          8           0        0.773383   -0.243526   -1.034573
     20          8           0        5.668175   -0.823595   -0.058705
     21         16           0       -4.313988    0.929518   -1.343658
     22          1           0        3.080392    0.514358   -1.249579
     23          1           0        0.025463   -2.670592    0.814815
     24          1           0        4.401938    2.029434   -0.472123
     25          1           0        4.084160   -2.285599   -1.113861
     26          1           0        2.791369   -1.678807   -2.203427
     27          1           0        2.566763   -1.838007    0.829959
     28          1           0        1.970211   -3.096268   -0.304011
     29          1           0       -6.626898    2.814292   -0.675416
     30          1           0       -7.349879    1.243591   -1.163050
     31          1           0       -7.441487    1.781492    0.548036
     32          1           0       -1.592673   -0.449658   -1.458736
     33          1           0        7.060163    1.001407    0.446628
     34          1           0        6.822140    2.561330   -0.410706
     35          1           0       -1.651532   -2.033598    2.540463
     36          1           0       -3.826401   -0.948294    2.968141
     37          1           0        5.546478    3.418202    1.502121
     38          1           0        5.785318    1.857744    2.359237
     39          1           0        7.198446    2.900718    1.983634
 ---------------------------------------------------------------------
 Rotational constants (GHZ):      0.6067960      0.0879650      0.0847380
 Standard basis: 6-31G(d) (6D, 7F)
 There are   355 symmetry adapted basis functions of A   symmetry.
 Integral buffers will be    131072 words long.
 Raffenetti 1 integral format.
 Two-electron integral symmetry is turned on.
   355 basis functions,   684 primitive gaussians,   355 cartesian basis functions
    81 alpha electrons       81 beta electrons
       nuclear repulsion energy      1677.1932199023 Hartrees.
 NAtoms=   39 NActive=   39 NUniq=   39 SFac= 1.00D+00 NAtFMM=   60 NAOKFM=F Big=F
 One-electron integrals computed using PRISM.
 NBasis=   355 RedAO= T  NBF=   355
 NBsUse=   355 1.00D-06 NBFU=   355
 Harris functional with IExCor=  205 diagonalized for initial guess.
 ExpMin= 1.17D-01 ExpMax= 2.19D+04 ExpMxC= 3.30D+03 IAcc=1 IRadAn=         1 AccDes= 0.00D+00
 HarFok:  IExCor=  205 AccDes= 0.00D+00 IRadAn=         1 IDoV= 1
 ScaDFX=  1.000000  1.000000  1.000000  1.000000
 FoFCou: FMM=F IPFlag=           0 FMFlag=      100000 FMFlg1=           0
         NFxFlg=           0 DoJE=T BraDBF=F KetDBF=T FulRan=T
         Omega=  0.000000  0.000000  1.000000  0.000000  0.000000 ICntrl=     500 IOpCl=  0
         NMat0=    1 NMatS0=    1 NMatT0=    0 NMatD0=    1 NMtDS0=    0 NMtDT0=    0
         I1Cent=           4 NGrid=           0.
 Petite list used in FoFCou.
 Initial guess orbital symmetries:
       Occupied  (A) (A) (A) (A) (A) (A) (A) (A) (A) (A) (A) (A)
                 (A) (A) (A) (A) (A) (A) (A) (A) (A) (A) (A) (A)
                 (A) (A) (A) (A) (A) (A) (A) (A) (A) (A) (A) (A)
                 (A) (A) (A) (A) (A) (A) (A) (A) (A) (A) (A) (A)
                 (A) (A) (A) (A) (A) (A) (A) (A) (A) (A) (A) (A)
                 (A) (A) (A) (A) (A) (A) (A) (A) (A) (A) (A) (A)
                 (A) (A) (A) (A) (A) (A) (A) (A) (A)
       Virtual   (A) (A) (A) (A) (A) (A) (A) (A) (A) (A) (A) (A)
                 (A) (A) (A) (A) (A) (A) (A) (A) (A) (A) (A) (A)
                 (A) (A) (A) (A) (A) (A) (A) (A) (A) (A) (A) (A)
                 (A) (A) (A) (A) (A) (A) (A) (A) (A) (A) (A) (A)
                 (A) (A) (A) (A) (A) (A) (A) (A) (A) (A) (A) (A)
                 (A) (A) (A) (A) (A) (A) (A) (A) (A) (A) (A) (A)
                 (A) (A) (A) (A) (A) (A) (A) (A) (A) (A) (A) (A)
                 (A) (A) (A) (A) (A) (A) (A) (A) (A) (A) (A) (A)
                 (A) (A) (A) (A) (A) (A) (A) (A) (A) (A) (A) (A)
                 (A) (A) (A) (A) (A) (A) (A) (A) (A) (A) (A) (A)
                 (A) (A) (A) (A) (A) (A) (A) (A) (A) (A) (A) (A)
                 (A) (A) (A) (A) (A) (A) (A) (A) (A) (A) (A) (A)
                 (A) (A) (A) (A) (A) (A) (A) (A) (A) (A) (A) (A)
                 (A) (A) (A) (A) (A) (A) (A) (A) (A) (A) (A) (A)
                 (A) (A) (A) (A) (A) (A) (A) (A) (A) (A) (A) (A)
                 (A) (A) (A) (A) (A) (A) (A) (A) (A) (A) (A) (A)
                 (A) (A) (A) (A) (A) (A) (A) (A) (A) (A) (A) (A)
                 (A) (A) (A) (A) (A) (A) (A) (A) (A) (A) (A) (A)
                 (A) (A) (A) (A) (A) (A) (A) (A) (A) (A) (A) (A)
                 (A) (A) (A) (A) (A) (A) (A) (A) (A) (A) (A) (A)
                 (A) (A) (A) (A) (A) (A) (A) (A) (A) (A) (A) (A)
                 (A) (A) (A) (A) (A) (A) (A) (A) (A) (A) (A) (A)
                 (A) (A) (A) (A) (A) (A) (A) (A) (A) (A)
 The electronic state of the initial guess is 1-A.
 Requested convergence on RMS density matrix=1.00D-08 within 128 cycles.
 Requested convergence on MAX density matrix=1.00D-06.
 Requested convergence on             energy=1.00D-06.
 No special actions if energy rises.
 Integral accuracy reduced to 1.0D-05 until final iterations.
 Initial convergence to 1.0D-05 achieved.  Increase integral accuracy.
 SCF Done:  E(RHF) =  -1305.72516061     A.U. after   16 cycles
             Convg  =    0.7956D-08             -V/T =  2.0017

 **********************************************************************

            Population analysis using the SCF density.

 **********************************************************************

 Orbital symmetries:
 BldTbl:  Degeneracy threshold= 1.00D-02
       Occupied  (A) (A) (A) (A) (A) (A) (A) (A) (A) (A) (A) (A)
                 (A) (A) (A) (A) (A) (A) (A) (A) (A) (A) (A) (A)
                 (A) (A) (A) (A) (A) (A) (A) (A) (A) (A) (A) (A)
                 (A) (A) (A) (A) (A) (A) (A) (A) (A) (A) (A) (A)
                 (A) (A) (A) (A) (A) (A) (A) (A) (A) (A) (A) (A)
                 (A) (A) (A) (A) (A) (A) (A) (A) (A) (A) (A) (A)
                 (A) (A) (A) (A) (A) (A) (A) (A) (A)
       Virtual   (A) (A) (A) (A) (A) (A) (A) (A) (A) (A) (A) (A)
                 (A) (A) (A) (A) (A) (A) (A) (A) (A) (A) (A) (A)
                 (A) (A) (A) (A) (A) (A) (A) (A) (A) (A) (A) (A)
                 (A) (A) (A) (A) (A) (A) (A) (A) (A) (A) (A) (A)
                 (A) (A) (A) (A) (A) (A) (A) (A) (A) (A) (A) (A)
                 (A) (A) (A) (A) (A) (A) (A) (A) (A) (A) (A) (A)
                 (A) (A) (A) (A) (A) (A) (A) (A) (A) (A) (A) (A)
                 (A) (A) (A) (A) (A) (A) (A) (A) (A) (A) (A) (A)
                 (A) (A) (A) (A) (A) (A) (A) (A) (A) (A) (A) (A)
                 (A) (A) (A) (A) (A) (A) (A) (A) (A) (A) (A) (A)
                 (A) (A) (A) (A) (A) (A) (A) (A) (A) (A) (A) (A)
                 (A) (A) (A) (A) (A) (A) (A) (A) (A) (A) (A) (A)
                 (A) (A) (A) (A) (A) (A) (A) (A) (A) (A) (A) (A)
                 (A) (A) (A) (A) (A) (A) (A) (A) (A) (A) (A) (A)
                 (A) (A) (A) (A) (A) (A) (A) (A) (A) (A) (A) (A)
                 (A) (A) (A) (A) (A) (A) (A) (A) (A) (A) (A) (A)
                 (A) (A) (A) (A) (A) (A) (A) (A) (A) (A) (A) (A)
                 (A) (A) (A) (A) (A) (A) (A) (A) (A) (A) (A) (A)
                 (A) (A) (A) (A) (A) (A) (A) (A) (A) (A) (A) (A)
                 (A) (A) (A) (A) (A) (A) (A) (A) (A) (A) (A) (A)
                 (A) (A) (A) (A) (A) (A) (A) (A) (A) (A) (A) (A)
                 (A) (A) (A) (A) (A) (A) (A) (A) (A) (A) (A) (A)
                 (A) (A) (A) (A) (A) (A) (A) (A) (A) (A)
 The electronic state is 1-A.
 Alpha  occ. eigenvalues --  -91.97791 -20.53959 -20.48784 -15.61528 -15.57579
 Alpha  occ. eigenvalues --  -15.57224 -15.56865 -11.36987 -11.35767 -11.32763
 Alpha  occ. eigenvalues --  -11.29483 -11.27537 -11.27279 -11.26772 -11.25492
 Alpha  occ. eigenvalues --  -11.25186 -11.24975 -11.24939 -11.24856 -11.24851
 Alpha  occ. eigenvalues --  -11.21524  -8.98898  -6.67147  -6.67057  -6.66875
 Alpha  occ. eigenvalues --   -1.38600  -1.36617  -1.28098  -1.26424  -1.23001
 Alpha  occ. eigenvalues --   -1.20096  -1.14797  -1.07543  -1.06229  -1.03779
 Alpha  occ. eigenvalues --   -1.01585  -0.99999  -0.96212  -0.90433  -0.85472
 Alpha  occ. eigenvalues --   -0.83669  -0.82031  -0.79317  -0.78564  -0.76271
 Alpha  occ. eigenvalues --   -0.75178  -0.71738  -0.68910  -0.67718  -0.67156
 Alpha  occ. eigenvalues --   -0.65895  -0.63438  -0.62219  -0.61428  -0.61120
 Alpha  occ. eigenvalues --   -0.60546  -0.60145  -0.59198  -0.58337  -0.57324
 Alpha  occ. eigenvalues --   -0.57078  -0.55818  -0.55412  -0.55031  -0.53704
 Alpha  occ. eigenvalues --   -0.53256  -0.52722  -0.51491  -0.50698  -0.48871
 Alpha  occ. eigenvalues --   -0.48516  -0.47592  -0.43258  -0.42515  -0.42064
 Alpha  occ. eigenvalues --   -0.41257  -0.41066  -0.38081  -0.37173  -0.32368
 Alpha  occ. eigenvalues --   -0.30241
 Alpha virt. eigenvalues --    0.10124   0.12955   0.15940   0.17194   0.19833
 Alpha virt. eigenvalues --    0.21454   0.22285   0.24650   0.24840   0.25161
 Alpha virt. eigenvalues --    0.25428   0.26442   0.26981   0.29023   0.30493
 Alpha virt. eigenvalues --    0.30641   0.30952   0.31086   0.31237   0.31341
 Alpha virt. eigenvalues --    0.32567   0.32929   0.33843   0.34502   0.34967
 Alpha virt. eigenvalues --    0.36173   0.36433   0.37949   0.39240   0.39799
 Alpha virt. eigenvalues --    0.41292   0.42062   0.42353   0.43777   0.44354
 Alpha virt. eigenvalues --    0.47510   0.49181   0.49887   0.50244   0.51818
 Alpha virt. eigenvalues --    0.53480   0.55212   0.56308   0.56794   0.58942
 Alpha virt. eigenvalues --    0.61795   0.64546   0.66348   0.68910   0.70268
 Alpha virt. eigenvalues --    0.71438   0.72848   0.73123   0.74095   0.74740
 Alpha virt. eigenvalues --    0.75924   0.76206   0.76603   0.77608   0.78425
 Alpha virt. eigenvalues --    0.79475   0.80479   0.81287   0.81438   0.81636
 Alpha virt. eigenvalues --    0.82136   0.82859   0.83424   0.84385   0.85280
 Alpha virt. eigenvalues --    0.85789   0.87804   0.88787   0.89516   0.90373
 Alpha virt. eigenvalues --    0.92652   0.93689   0.94109   0.94207   0.94827
 Alpha virt. eigenvalues --    0.96224   0.97040   0.97792   1.00525   1.03100
 Alpha virt. eigenvalues --    1.03870   1.04262   1.04767   1.05312   1.06348
 Alpha virt. eigenvalues --    1.07700   1.08042   1.08912   1.09610   1.10037
 Alpha virt. eigenvalues --    1.10603   1.10901   1.11715   1.12092   1.12615
 Alpha virt. eigenvalues --    1.13545   1.13718   1.14027   1.14505   1.14945
 Alpha virt. eigenvalues --    1.15396   1.16551   1.18001   1.18400   1.19100
 Alpha virt. eigenvalues --    1.19618   1.19954   1.20238   1.20890   1.21140
 Alpha virt. eigenvalues --    1.21903   1.23091   1.23752   1.24288   1.25373
 Alpha virt. eigenvalues --    1.26666   1.27786   1.30389   1.31240   1.32321
 Alpha virt. eigenvalues --    1.34005   1.35766   1.37567   1.39004   1.40077
 Alpha virt. eigenvalues --    1.41742   1.43555   1.44301   1.45093   1.49910
 Alpha virt. eigenvalues --    1.51216   1.54313   1.55448   1.56596   1.58188
 Alpha virt. eigenvalues --    1.59465   1.60401   1.61473   1.62440   1.63255
 Alpha virt. eigenvalues --    1.64604   1.67816   1.68284   1.69325   1.70608
 Alpha virt. eigenvalues --    1.72050   1.72610   1.73840   1.76422   1.78465
 Alpha virt. eigenvalues --    1.81376   1.82339   1.83816   1.84904   1.87607
 Alpha virt. eigenvalues --    1.90379   1.92158   1.94023   1.95615   1.97192
 Alpha virt. eigenvalues --    2.00800   2.01691   2.04299   2.07430   2.08514
 Alpha virt. eigenvalues --    2.10008   2.10784   2.11093   2.13333   2.13599
 Alpha virt. eigenvalues --    2.14814   2.15834   2.16901   2.18619   2.19992
 Alpha virt. eigenvalues --    2.20510   2.21888   2.23492   2.23875   2.25178
 Alpha virt. eigenvalues --    2.26376   2.27567   2.29958   2.30130   2.30925
 Alpha virt. eigenvalues --    2.33194   2.34263   2.34871   2.37174   2.38218
 Alpha virt. eigenvalues --    2.39746   2.40207   2.43778   2.44362   2.45219
 Alpha virt. eigenvalues --    2.45836   2.48351   2.49362   2.50760   2.52921
 Alpha virt. eigenvalues --    2.56155   2.58125   2.59040   2.59560   2.61343
 Alpha virt. eigenvalues --    2.61880   2.63505   2.64745   2.65821   2.67142
 Alpha virt. eigenvalues --    2.69368   2.71226   2.72769   2.73534   2.74578
 Alpha virt. eigenvalues --    2.76172   2.78879   2.80072   2.82357   2.84717
 Alpha virt. eigenvalues --    2.87186   2.90706   2.92085   2.93484   2.95834
 Alpha virt. eigenvalues --    2.96388   2.99537   2.99994   3.01183   3.04996
 Alpha virt. eigenvalues --    3.05440   3.06677   3.07980   3.09796   3.12526
 Alpha virt. eigenvalues --    3.15010   3.17151   3.19660   3.27952   3.32052
 Alpha virt. eigenvalues --    3.32912   3.35615   3.40410   3.52217   3.56970
 Alpha virt. eigenvalues --    3.58710   3.63866   3.80865   4.36233   4.39776
 Alpha virt. eigenvalues --    4.44481   4.47651   4.48662   4.51560   4.52896
 Alpha virt. eigenvalues --    4.54317   4.58861   4.62087   4.63482   4.63939
 Alpha virt. eigenvalues --    4.65599   4.73670   4.80134   4.83647   4.85266
 Alpha virt. eigenvalues --    4.90332   4.94620   4.98010   5.17895
          Condensed to atoms (all electrons):
              1          2          3          4          5          6
     1  C    5.134121   0.000000   0.000000   0.342379   0.000000   0.000000
     2  C    0.000000   4.901451   0.547329   0.000000  -0.033610   0.564749
     3  C    0.000000   0.547329   4.967061   0.000000  -0.046056  -0.043661
     4  C    0.342379   0.000000   0.000000   4.913486   0.000000   0.000000
     5  C    0.000000  -0.033610  -0.046056   0.000000   4.937020  -0.016633
     6  C    0.000000   0.564749  -0.043661   0.000000  -0.016633   4.534558
     7  C    0.000000  -0.041545   0.548963   0.000000   0.594667  -0.025133
     8  C    0.000000  -0.058073  -0.034849   0.000000   0.479109   0.515292
     9  C    0.000000   0.003678  -0.000016   0.000000   0.002629  -0.101529
    10  C    0.000000  -0.000036   0.001877   0.000000  -0.002071   0.000010
    11  C   -0.000088   0.000000   0.000000  -0.025789   0.000000   0.000000
    12  C    0.000000  -0.000064   0.000002   0.000000  -0.000010   0.004044
    13  C    0.000000   0.000000  -0.000152  -0.000001   0.000153   0.000000
    14  C    0.000001   0.000000   0.000002  -0.000044  -0.000008   0.000000
    15  N    0.000000  -0.045599   0.002925   0.000000   0.006856   0.393568
    16  N   -0.069554   0.000000   0.000000   0.199463   0.000000   0.000000
    17  N    0.000000   0.003230  -0.053851   0.000000  -0.047790   0.000213
    18  N   -0.000077   0.000000   0.000000   0.002680   0.000000   0.000000
    19  O    0.000000  -0.000007   0.000145   0.000000  -0.006927   0.000007
    20  O   -0.000196   0.000000   0.000000  -0.002237   0.000000   0.000000
    21  S    0.000000   0.004587   0.000226   0.000000  -0.043810  -0.069131
    22  H   -0.000005   0.000000   0.000000  -0.000092   0.000001   0.000000
    23  H    0.000000   0.000029  -0.001296   0.000000   0.002281  -0.000004
    24  H   -0.000168   0.000000   0.000000  -0.020048   0.000000   0.000000
    25  H    0.000000   0.000000   0.000000  -0.000001   0.000000   0.000000
    26  H    0.000000   0.000000   0.000000   0.000002  -0.000002   0.000000
    27  H    0.000000   0.000000   0.000026   0.000002  -0.000006   0.000000
    28  H    0.000000   0.000000  -0.000018   0.000000   0.000000   0.000000
    29  H    0.000000   0.000002   0.000000   0.000000   0.000000  -0.000138
    30  H    0.000000   0.000004   0.000000   0.000000  -0.000001  -0.000087
    31  H    0.000000  -0.000011   0.000000   0.000000   0.000000   0.000227
    32  H    0.000000   0.000081   0.002699   0.000000   0.368692   0.000986
    33  H   -0.039590   0.000000   0.000000   0.405100   0.000000   0.000000
    34  H   -0.059698   0.000000   0.000000   0.413321   0.000000   0.000000
    35  H    0.000000  -0.021285   0.377218   0.000000   0.002795   0.001526
    36  H    0.000000   0.371987  -0.029708   0.000000  -0.000090  -0.024067
    37  H    0.388101   0.000000   0.000000  -0.041315   0.000000   0.000000
    38  H    0.387179   0.000000   0.000000  -0.038097   0.000000   0.000000
    39  H    0.386654   0.000000   0.000000  -0.040142   0.000000   0.000000
              7          8          9         10         11         12
     1  C    0.000000   0.000000   0.000000   0.000000  -0.000088   0.000000
     2  C   -0.041545  -0.058073   0.003678  -0.000036   0.000000  -0.000064
     3  C    0.548963  -0.034849  -0.000016   0.001877   0.000000   0.000002
     4  C    0.000000   0.000000   0.000000   0.000000  -0.025789   0.000000
     5  C    0.594667   0.479109   0.002629  -0.002071   0.000000  -0.000010
     6  C   -0.025133   0.515292  -0.101529   0.000010   0.000000   0.004044
     7  C    4.541090  -0.041801  -0.000081  -0.020018   0.000000   0.000000
     8  C   -0.041801   5.256025  -0.046992   0.000085   0.000000   0.002528
     9  C   -0.000081  -0.046992   5.004515   0.000000   0.000000   0.317980
    10  C   -0.020018   0.000085   0.000000   4.166183   0.000137   0.000000
    11  C    0.000000   0.000000   0.000000   0.000137   3.801890   0.000000
    12  C    0.000000   0.002528   0.317980   0.000000   0.000000   5.144262
    13  C    0.003944   0.000001   0.000000   0.355348  -0.002153   0.000000
    14  C   -0.000074   0.000000   0.000000  -0.041554  -0.028192   0.000000
    15  N   -0.000341  -0.091105   0.538995   0.000000   0.000000  -0.048915
    16  N    0.000000   0.000000   0.000000  -0.000018   0.315247   0.000000
    17  N    0.193984   0.003601   0.000000   0.273715  -0.000002   0.000000
    18  N    0.000003   0.000000   0.000000  -0.000991   0.315109   0.000000
    19  O    0.002911   0.000066   0.000000   0.568252   0.000255   0.000000
    20  O    0.000000   0.000000   0.000000  -0.000006   0.616396   0.000000
    21  S    0.001799   0.276076   0.300176  -0.000003   0.000000  -0.056124
    22  H   -0.000001   0.000000   0.000000   0.000484  -0.015949   0.000000
    23  H   -0.022576  -0.000053   0.000000  -0.025201   0.000000   0.000000
    24  H    0.000000   0.000000   0.000000   0.000003  -0.017194   0.000000
    25  H    0.000001   0.000000   0.000000   0.003759  -0.000601   0.000000
    26  H   -0.000004   0.000000   0.000000  -0.004077   0.002379   0.000000
    27  H   -0.000289   0.000000   0.000000  -0.028209   0.001680   0.000000
    28  H    0.000031   0.000000   0.000000  -0.040853  -0.000003   0.000000
    29  H    0.000000   0.000039  -0.040586   0.000000   0.000000   0.387480
    30  H    0.000000   0.000038  -0.040426   0.000000   0.000000   0.389073
    31  H    0.000000  -0.000060  -0.039087   0.000000   0.000000   0.388782
    32  H   -0.014382  -0.029152  -0.000004   0.001907   0.000000   0.000000
    33  H    0.000000   0.000000   0.000000   0.000000  -0.000733   0.000000
    34  H    0.000000   0.000000   0.000000   0.000000   0.001614   0.000000
    35  H   -0.036763   0.000251   0.000003   0.000052   0.000000   0.000000
    36  H    0.001852   0.004358  -0.000042   0.000001   0.000000  -0.000005
    37  H    0.000000   0.000000   0.000000   0.000000   0.000026   0.000000
    38  H    0.000000   0.000000   0.000000   0.000000   0.000821   0.000000
    39  H    0.000000   0.000000   0.000000   0.000000  -0.000034   0.000000
             13         14         15         16         17         18
     1  C    0.000000   0.000001   0.000000  -0.069554   0.000000  -0.000077
     2  C    0.000000   0.000000  -0.045599   0.000000   0.003230   0.000000
     3  C   -0.000152   0.000002   0.002925   0.000000  -0.053851   0.000000
     4  C   -0.000001  -0.000044   0.000000   0.199463   0.000000   0.002680
     5  C    0.000153  -0.000008   0.006856   0.000000  -0.047790   0.000000
     6  C    0.000000   0.000000   0.393568   0.000000   0.000213   0.000000
     7  C    0.003944  -0.000074  -0.000341   0.000000   0.193984   0.000003
     8  C    0.000001   0.000000  -0.091105   0.000000   0.003601   0.000000
     9  C    0.000000   0.000000   0.538995   0.000000   0.000000   0.000000
    10  C    0.355348  -0.041554   0.000000  -0.000018   0.273715  -0.000991
    11  C   -0.002153  -0.028192   0.000000   0.315247  -0.000002   0.315109
    12  C    0.000000   0.000000  -0.048915   0.000000   0.000000   0.000000
    13  C    5.356653   0.323222   0.000000  -0.000043  -0.113300  -0.075693
    14  C    0.323222   4.892027   0.000000   0.003120   0.003005   0.221909
    15  N    0.000000   0.000000   6.860028   0.000000  -0.000002   0.000000
    16  N   -0.000043   0.003120   0.000000   7.371168   0.000000  -0.124782
    17  N   -0.113300   0.003005  -0.000002   0.000000   7.396295  -0.000106
    18  N   -0.075693   0.221909   0.000000  -0.124782  -0.000106   7.361390
    19  O   -0.076944   0.004911   0.000000  -0.000010  -0.090330  -0.006543
    20  O   -0.000597   0.001422   0.000000  -0.098100   0.000000  -0.099996
    21  S    0.000000   0.000000  -0.082453   0.000000  -0.000076   0.000000
    22  H   -0.000538  -0.017325   0.000000   0.000884   0.000116   0.312937
    23  H    0.000639   0.000046   0.000000   0.000000   0.326688   0.000006
    24  H    0.000003  -0.000136   0.000000   0.318661   0.000000   0.002123
    25  H   -0.042267   0.405785   0.000000   0.000388  -0.000043  -0.033428
    26  H   -0.057432   0.412260   0.000000   0.000015  -0.000029  -0.042739
    27  H    0.374350  -0.027831   0.000000  -0.000031  -0.002027  -0.001413
    28  H    0.382551  -0.038134   0.000000   0.000000   0.001595   0.004581
    29  H    0.000000   0.000000   0.000722   0.000000   0.000000   0.000000
    30  H    0.000000   0.000000   0.000134   0.000000   0.000000   0.000000
    31  H    0.000000   0.000000   0.003241   0.000000   0.000000   0.000000
    32  H    0.000109   0.000002  -0.000059   0.000000  -0.005325   0.000000
    33  H    0.000000  -0.000006   0.000000  -0.033031   0.000000   0.000427
    34  H    0.000000   0.000002   0.000000  -0.050079   0.000000   0.000021
    35  H   -0.000003   0.000000  -0.000056   0.000000  -0.001133   0.000000
    36  H    0.000000   0.000000   0.000769   0.000000  -0.000083   0.000000
    37  H    0.000000   0.000000   0.000000  -0.002138   0.000000  -0.000009
    38  H    0.000000   0.000000   0.000000   0.000024   0.000000  -0.000025
    39  H    0.000000   0.000000   0.000000   0.004821   0.000000   0.000001
             19         20         21         22         23         24
     1  C    0.000000  -0.000196   0.000000  -0.000005   0.000000  -0.000168
     2  C   -0.000007   0.000000   0.004587   0.000000   0.000029   0.000000
     3  C    0.000145   0.000000   0.000226   0.000000  -0.001296   0.000000
     4  C    0.000000  -0.002237   0.000000  -0.000092   0.000000  -0.020048
     5  C   -0.006927   0.000000  -0.043810   0.000001   0.002281   0.000000
     6  C    0.000007   0.000000  -0.069131   0.000000  -0.000004   0.000000
     7  C    0.002911   0.000000   0.001799  -0.000001  -0.022576   0.000000
     8  C    0.000066   0.000000   0.276076   0.000000  -0.000053   0.000000
     9  C    0.000000   0.000000   0.300176   0.000000   0.000000   0.000000
    10  C    0.568252  -0.000006  -0.000003   0.000484  -0.025201   0.000003
    11  C    0.000255   0.616396   0.000000  -0.015949   0.000000  -0.017194
    12  C    0.000000   0.000000  -0.056124   0.000000   0.000000   0.000000
    13  C   -0.076944  -0.000597   0.000000  -0.000538   0.000639   0.000003
    14  C    0.004911   0.001422   0.000000  -0.017325   0.000046  -0.000136
    15  N    0.000000   0.000000  -0.082453   0.000000   0.000000   0.000000
    16  N   -0.000010  -0.098100   0.000000   0.000884   0.000000   0.318661
    17  N   -0.090330   0.000000  -0.000076   0.000116   0.326688   0.000000
    18  N   -0.006543  -0.099996   0.000000   0.312937   0.000006   0.002123
    19  O    8.229064  -0.000001  -0.000014   0.010748   0.002181  -0.000033
    20  O   -0.000001   8.257057   0.000000   0.002130   0.000000   0.002435
    21  S   -0.000014   0.000000  15.379601   0.000000   0.000003   0.000000
    22  H    0.010748   0.002130   0.000000   0.301563  -0.000006   0.003313
    23  H    0.002181   0.000000   0.000003  -0.000006   0.316484   0.000000
    24  H   -0.000033   0.002435   0.000000   0.003313   0.000000   0.333627
    25  H    0.000158   0.009583   0.000000   0.002106  -0.000010  -0.000010
    26  H    0.002050   0.000331   0.000000  -0.002073   0.000002  -0.000009
    27  H    0.000868   0.000773   0.000000   0.000117   0.000437  -0.000005
    28  H    0.001696  -0.000021   0.000000  -0.000065   0.001708   0.000000
    29  H    0.000000   0.000000   0.000461   0.000000   0.000000   0.000000
    30  H    0.000000   0.000000   0.000150   0.000000   0.000000   0.000000
    31  H    0.000000   0.000000   0.003226   0.000000   0.000000   0.000000
    32  H    0.007909   0.000000  -0.000585   0.000001  -0.000146   0.000000
    33  H    0.000000   0.009472   0.000000  -0.000012   0.000000   0.002503
    34  H    0.000000   0.000366   0.000000  -0.000008   0.000000  -0.001305
    35  H    0.000000   0.000000   0.000013   0.000000   0.002500   0.000000
    36  H    0.000000   0.000000  -0.000090   0.000000  -0.000003   0.000000
    37  H    0.000000  -0.000017   0.000000   0.000001   0.000000   0.002004
    38  H    0.000000   0.000313   0.000000  -0.000001   0.000000   0.000030
    39  H    0.000000  -0.000004   0.000000   0.000000   0.000000  -0.000093
             25         26         27         28         29         30
     1  C    0.000000   0.000000   0.000000   0.000000   0.000000   0.000000
     2  C    0.000000   0.000000   0.000000   0.000000   0.000002   0.000004
     3  C    0.000000   0.000000   0.000026  -0.000018   0.000000   0.000000
     4  C   -0.000001   0.000002   0.000002   0.000000   0.000000   0.000000
     5  C    0.000000  -0.000002  -0.000006   0.000000   0.000000  -0.000001
     6  C    0.000000   0.000000   0.000000   0.000000  -0.000138  -0.000087
     7  C    0.000001  -0.000004  -0.000289   0.000031   0.000000   0.000000
     8  C    0.000000   0.000000   0.000000   0.000000   0.000039   0.000038
     9  C    0.000000   0.000000   0.000000   0.000000  -0.040586  -0.040426
    10  C    0.003759  -0.004077  -0.028209  -0.040853   0.000000   0.000000
    11  C   -0.000601   0.002379   0.001680  -0.000003   0.000000   0.000000
    12  C    0.000000   0.000000   0.000000   0.000000   0.387480   0.389073
    13  C   -0.042267  -0.057432   0.374350   0.382551   0.000000   0.000000
    14  C    0.405785   0.412260  -0.027831  -0.038134   0.000000   0.000000
    15  N    0.000000   0.000000   0.000000   0.000000   0.000722   0.000134
    16  N    0.000388   0.000015  -0.000031   0.000000   0.000000   0.000000
    17  N   -0.000043  -0.000029  -0.002027   0.001595   0.000000   0.000000
    18  N   -0.033428  -0.042739  -0.001413   0.004581   0.000000   0.000000
    19  O    0.000158   0.002050   0.000868   0.001696   0.000000   0.000000
    20  O    0.009583   0.000331   0.000773  -0.000021   0.000000   0.000000
    21  S    0.000000   0.000000   0.000000   0.000000   0.000461   0.000150
    22  H    0.002106  -0.002073   0.000117  -0.000065   0.000000   0.000000
    23  H   -0.000010   0.000002   0.000437   0.001708   0.000000   0.000000
    24  H   -0.000010  -0.000009  -0.000005   0.000000   0.000000   0.000000
    25  H    0.443233  -0.019831  -0.001481  -0.002230   0.000000   0.000000
    26  H   -0.019831   0.518767   0.003923   0.001481   0.000000   0.000000
    27  H   -0.001481   0.003923   0.474033  -0.016159   0.000000   0.000000
    28  H   -0.002230   0.001481  -0.016159   0.523745   0.000000   0.000000
    29  H    0.000000   0.000000   0.000000   0.000000   0.501817  -0.025895
    30  H    0.000000   0.000000   0.000000   0.000000  -0.025895   0.498726
    31  H    0.000000   0.000000   0.000000   0.000000  -0.019449  -0.019525
    32  H    0.000000   0.000001  -0.000001  -0.000015   0.000000   0.000000
    33  H   -0.000004   0.000000   0.000000   0.000000   0.000000   0.000000
    34  H    0.000000   0.000000   0.000000   0.000000   0.000000   0.000000
    35  H    0.000000   0.000000  -0.000001  -0.000004   0.000000   0.000000
    36  H    0.000000   0.000000   0.000000   0.000000   0.000000   0.000000
    37  H    0.000000   0.000000   0.000000   0.000000   0.000000   0.000000
    38  H    0.000000   0.000000  -0.000001   0.000000   0.000000   0.000000
    39  H    0.000000   0.000000   0.000000   0.000000   0.000000   0.000000
             31         32         33         34         35         36
     1  C    0.000000   0.000000  -0.039590  -0.059698   0.000000   0.000000
     2  C   -0.000011   0.000081   0.000000   0.000000  -0.021285   0.371987
     3  C    0.000000   0.002699   0.000000   0.000000   0.377218  -0.029708
     4  C    0.000000   0.000000   0.405100   0.413321   0.000000   0.000000
     5  C    0.000000   0.368692   0.000000   0.000000   0.002795  -0.000090
     6  C    0.000227   0.000986   0.000000   0.000000   0.001526  -0.024067
     7  C    0.000000  -0.014382   0.000000   0.000000  -0.036763   0.001852
     8  C   -0.000060  -0.029152   0.000000   0.000000   0.000251   0.004358
     9  C   -0.039087  -0.000004   0.000000   0.000000   0.000003  -0.000042
    10  C    0.000000   0.001907   0.000000   0.000000   0.000052   0.000001
    11  C    0.000000   0.000000  -0.000733   0.001614   0.000000   0.000000
    12  C    0.388782   0.000000   0.000000   0.000000   0.000000  -0.000005
    13  C    0.000000   0.000109   0.000000   0.000000  -0.000003   0.000000
    14  C    0.000000   0.000002  -0.000006   0.000002   0.000000   0.000000
    15  N    0.003241  -0.000059   0.000000   0.000000  -0.000056   0.000769
    16  N    0.000000   0.000000  -0.033031  -0.050079   0.000000   0.000000
    17  N    0.000000  -0.005325   0.000000   0.000000  -0.001133  -0.000083
    18  N    0.000000   0.000000   0.000427   0.000021   0.000000   0.000000
    19  O    0.000000   0.007909   0.000000   0.000000   0.000000   0.000000
    20  O    0.000000   0.000000   0.009472   0.000366   0.000000   0.000000
    21  S    0.003226  -0.000585   0.000000   0.000000   0.000013  -0.000090
    22  H    0.000000   0.000001  -0.000012  -0.000008   0.000000   0.000000
    23  H    0.000000  -0.000146   0.000000   0.000000   0.002500  -0.000003
    24  H    0.000000   0.000000   0.002503  -0.001305   0.000000   0.000000
    25  H    0.000000   0.000000  -0.000004   0.000000   0.000000   0.000000
    26  H    0.000000   0.000001   0.000000   0.000000   0.000000   0.000000
    27  H    0.000000  -0.000001   0.000000   0.000000  -0.000001   0.000000
    28  H    0.000000  -0.000015   0.000000   0.000000  -0.000004   0.000000
    29  H   -0.019449   0.000000   0.000000   0.000000   0.000000   0.000000
    30  H   -0.019525   0.000000   0.000000   0.000000   0.000000   0.000000
    31  H    0.464069   0.000000   0.000000   0.000000   0.000000   0.000002
    32  H    0.000000   0.405434   0.000000   0.000000  -0.000089   0.000007
    33  H    0.000000   0.000000   0.449021  -0.022717   0.000000   0.000000
    34  H    0.000000   0.000000  -0.022717   0.557632   0.000000   0.000000
    35  H    0.000000  -0.000089   0.000000   0.000000   0.469180  -0.001820
    36  H    0.000002   0.000007   0.000000   0.000000  -0.001820   0.447464
    37  H    0.000000   0.000000   0.004017  -0.003886   0.000000   0.000000
    38  H    0.000000   0.000000  -0.003306   0.004824   0.000000   0.000000
    39  H    0.000000   0.000000  -0.001928   0.000184   0.000000   0.000000
             37         38         39
     1  C    0.388101   0.387179   0.386654
     2  C    0.000000   0.000000   0.000000
     3  C    0.000000   0.000000   0.000000
     4  C   -0.041315  -0.038097  -0.040142
     5  C    0.000000   0.000000   0.000000
     6  C    0.000000   0.000000   0.000000
     7  C    0.000000   0.000000   0.000000
     8  C    0.000000   0.000000   0.000000
     9  C    0.000000   0.000000   0.000000
    10  C    0.000000   0.000000   0.000000
    11  C    0.000026   0.000821  -0.000034
    12  C    0.000000   0.000000   0.000000
    13  C    0.000000   0.000000   0.000000
    14  C    0.000000   0.000000   0.000000
    15  N    0.000000   0.000000   0.000000
    16  N   -0.002138   0.000024   0.004821
    17  N    0.000000   0.000000   0.000000
    18  N   -0.000009  -0.000025   0.000001
    19  O    0.000000   0.000000   0.000000
    20  O   -0.000017   0.000313  -0.000004
    21  S    0.000000   0.000000   0.000000
    22  H    0.000001  -0.000001   0.000000
    23  H    0.000000   0.000000   0.000000
    24  H    0.002004   0.000030  -0.000093
    25  H    0.000000   0.000000   0.000000
    26  H    0.000000   0.000000   0.000000
    27  H    0.000000  -0.000001   0.000000
    28  H    0.000000   0.000000   0.000000
    29  H    0.000000   0.000000   0.000000
    30  H    0.000000   0.000000   0.000000
    31  H    0.000000   0.000000   0.000000
    32  H    0.000000   0.000000   0.000000
    33  H    0.004017  -0.003306  -0.001928
    34  H   -0.003886   0.004824   0.000184
    35  H    0.000000   0.000000   0.000000
    36  H    0.000000   0.000000   0.000000
    37  H    0.560401  -0.027075  -0.025140
    38  H   -0.027075   0.524406  -0.021965
    39  H   -0.025140  -0.021965   0.537335
 Mulliken atomic charges:
              1
     1  C   -0.469057
     2  C   -0.196897
     3  C   -0.238865
     4  C   -0.108664
     5  C   -0.197188
     6  C    0.265201
     7  C    0.313764
     8  C   -0.235386
     9  C    0.100787
    10  C    0.791222
    11  C    1.035183
    12  C   -0.529033
    13  C   -0.427850
    14  C   -0.114408
    15  N   -0.538709
    16  N   -0.836006
    17  N   -0.888348
    18  N   -0.835385
    19  O   -0.650412
    20  O   -0.699102
    21  S    0.285968
    22  H    0.401673
    23  H    0.396290
    24  H    0.374297
    25  H    0.234891
    26  H    0.184985
    27  H    0.221246
    28  H    0.180114
    29  H    0.195548
    30  H    0.197808
    31  H    0.218585
    32  H    0.261930
    33  H    0.230786
    34  H    0.159729
    35  H    0.207618
    36  H    0.229469
    37  H    0.145032
    38  H    0.172875
    39  H    0.160311
 Sum of Mulliken atomic charges =   0.00000
 Mulliken charges with hydrogens summed into heavy atoms:
              1
     1  C    0.009160
     2  C    0.032571
     3  C   -0.031247
     4  C    0.281852
     5  C    0.064742
     6  C    0.265201
     7  C    0.313764
     8  C   -0.235386
     9  C    0.100787
    10  C    0.791222
    11  C    1.035183
    12  C    0.082908
    13  C   -0.026490
    14  C    0.305468
    15  N   -0.538709
    16  N   -0.461709
    17  N   -0.492058
    18  N   -0.433712
    19  O   -0.650412
    20  O   -0.699102
    21  S    0.285968
 Sum of Mulliken charges with hydrogens summed into heavy atoms =   0.00000
 DipInt: DoE/N= T F RetVal/Mat= T F Init=T NMatP=  1 IDeriv=0 Min/MaxMlt=  0  4
 Entering OneElI...
 OneElI was handed    33230274 working-precision words.
 Multipole integrals L=0 to 4 MinM= 0 MaxM= 0.
 Requested accuracy = 0.1000D-12
 PrsmSu:  NPrtUS=   1 ThrOK=F IAlg=1 NPAlg=1 LenDen=           0.
 Prism:   IPart=     0 DynPar=F LinDyn=F Incr=          47.
 PRISM was handed    32787800 working-precision words and  4732 shell-pairs
 IPart=  0 NShTot=        4732 NBatch=          53 AvBLen=        89.3
 PrSmSu:  NxtVal=             48.
 Electronic moments (au):
       -162.00000000         -1.15528203          0.03088789          0.01706499
     -10618.11890550      -1170.22370205       -718.07631591          6.17639841
          3.98344001         -3.74424154      -7338.96773888       -630.45597992
       -712.95699212      -3065.45005637     -17119.56848976      -1861.91712868
        798.62993359        -34.30438068       -664.48547854      -3508.63219424
   -1162683.58279048     -20204.84150044      -8856.56764374     -17917.10248061
     -47599.07013648      -9636.45329696      -2790.20499618        306.10608021
        144.64227388     -94085.93276133     -44201.88480092      -5868.48843758
     -13106.82829387      -7611.68271661      -4796.63936302
 Electronic spatial extent (au):  <R**2>=          12506.4189
 DipInt: DoE/N= F T RetVal/Mat= T F Init=T NMatP=  1 IDeriv=0 Min/MaxMlt=  0  4
 Nuclear    moments (au):
        162.00000000          0.00000000          0.00000000          0.00000000
      10509.76575125       1083.33692404        621.50129070          0.00000000
          0.00000000          0.00000000       7070.94370006        611.62126127
        713.22714724       3105.28635463      17337.38143750       1797.53443325
       -773.30423757         13.01451714        660.77387850       3529.20726800
    1124355.63481436      16239.85637845       6358.41999785      18591.77399521
      48572.31311128       9524.56019316       2709.43692071       -404.53699580
       -234.28952583      87434.23647423      37297.02846235       4765.84580796
      12974.04133800       7549.44779437       4821.26730059
 Total      moments (au):
          0.00000000         -1.15528203          0.03088789          0.01706499
       -108.35315425        -86.88677801        -96.57502521          6.17639841
          3.98344001         -3.74424154       -268.02403882        -18.83471865
          0.27015513         39.83629826        217.81294774        -64.38269542
         25.32569602        -21.28986354         -3.71160004         20.57507376
     -38327.94797611      -3964.98512199      -2498.14764589        674.67151460
        973.24297480       -111.89310380        -80.76807548        -98.43091558
        -89.64725195      -6651.69628710      -6904.85633857      -1102.64262962
       -132.78695587        -62.23492224         24.62793756
 Traceless Quadrup. (au):
        -11.08150176         10.38487448          0.69662728          6.17639841
          3.98344001         -3.74424154
 Charge=              0.0000 electrons
 Dipole moment (field-independent basis, Debye):
    X=             -2.9364    Y=              0.0785    Z=              0.0434  Tot=              2.9378
 Quadrupole moment (field-independent basis, Debye-Ang):
   XX=           -145.7387   YY=           -116.8657   ZZ=           -129.8967
   XY=              8.3075   XZ=              5.3579   YZ=             -5.0361
 Traceless Quadrupole moment (field-independent basis, Debye-Ang):
   XX=            -14.9050   YY=             13.9680   ZZ=              0.9370
   XY=              8.3075   XZ=              5.3579   YZ=             -5.0361
 Octapole moment (field-independent basis, Debye-Ang**2):
  XXX=           -190.7692  YYY=            -13.4058  ZZZ=              0.1923  XYY=             28.3539
  XXY=            155.0309  XXZ=            -45.8251  XZZ=             18.0259  YZZ=            -15.1533
  YYZ=             -2.6418  XYZ=             14.6445
 Hexadecapole moment (field-independent basis, Debye-Ang**3):
 XXXX=         -14436.1421 YYYY=          -1493.4034 ZZZZ=           -940.9221 XXXY=            254.1136
 XXXZ=            366.5699 YYYX=            -42.1443 YYYZ=            -30.4211 ZZZX=            -37.0738
 ZZZY=            -33.7655 XXYY=          -2505.3476 XXZZ=          -2600.6998 YYZZ=           -415.3081
 XXYZ=            -50.0139 YYXZ=            -23.4407 ZZXY=              9.2761
 N-N= 1.677193219902D+03 E-N=-6.424610139564D+03  KE= 1.303561774058D+03
 Entering OneElI...
 OneElI was handed    32976894 working-precision words.
 Calculate electrostatic properties
    NBasis =   355  MinDer = 0  MaxDer = 0
    NGrid  =    39  NMatD  =   1
 Requested accuracy = 0.1000D-12
 PrsmSu:  NPrtUS=   1 ThrOK=F IAlg=1 NPAlg=1 LenDen=           0.
 Prism:   IPart=     0 DynPar=F LinDyn=F Incr=         512.
 PRISM was handed    32582706 working-precision words and  4010 shell-pairs
 IPart=  0 NShTot=      156390 NBatch=        4010 AvBLen=        39.0
 PrSmSu:  NxtVal=            513.
 --------------------------------------------------------
       Center         ----      EFG at Nuclei      ----
                      3XX-RR        3YY-RR        3ZZ-RR
 --------------------------------------------------------
[...]
 **** Fit      -0.006492
 **** Fit      -0.003511
 **** Fit      -0.001708
 **** Fit      -0.000167
 **** Fit       0.001264
 **** Fit      -0.024966
 **** Fit      -0.017697
 **** Fit      -0.012483
 **** Fit      -0.008645
 **** Fit      -0.005751
 **** Fit      -0.003035
 **** Fit      -0.001367
 **** Fit       0.000059
 **** Fit       0.001382
 **** Fit      -0.022392
 **** Fit      -0.015903
 **** Fit      -0.011217
 **** Fit      -0.007740
 **** Fit      -0.005097
 **** Fit      -0.002657
 **** Fit      -0.001086
 **** Fit       0.000268
 **** Fit       0.001532
 **** Fit      -0.020396
 **** Fit      -0.014528
 **** Fit      -0.010249
 **** Fit      -0.007043
 **** Fit      -0.004587
 **** Fit      -0.002356
 **** Fit      -0.000805
 **** Fit       0.000544
 **** Fit      -0.019708
 **** Fit      -0.013985
 **** Fit      -0.009800
 **** Fit      -0.006660
 **** Fit      -0.004252
 **** Fit      -0.002102
 **** Fit      -0.000535
 **** Fit       0.000856
 **** Fit      -0.019174
 **** Fit      -0.013627
 **** Fit      -0.009512
 **** Fit      -0.006399
 **** Fit      -0.004000
 **** Fit      -0.001858
 **** Fit      -0.000275
 **** Fit       0.001176
 **** Fit      -0.017606
 **** Fit      -0.012782
 **** Fit      -0.009006
 **** Fit      -0.006057
 **** Fit      -0.003732
 **** Fit      -0.001576
 **** Fit       0.000131
 **** Fit      -0.012377
 **** Fit      -0.008857
 **** Fit      -0.005927
 **** Fit      -0.003542
 **** Fit      -0.001201
 **** Fit      -0.008253
 **** Fit      -0.005596
 **** Fit      -0.003243
 **** Fit       0.005890
 **** Fit       0.006038
 **** Fit       0.005470
 **** Fit       0.005979
 **** Fit       0.006326
 **** Fit       0.006504
 **** Fit       0.006522
 **** Fit       0.006400
 **** Fit       0.004791
 **** Fit       0.005528
 **** Fit       0.006142
 **** Fit       0.006621
 **** Fit       0.006963
 **** Fit       0.007177
 **** Fit       0.007279
 **** Fit       0.007299
 **** Fit       0.007279
 **** Fit       0.007281
 **** Fit       0.004053
 **** Fit       0.004945
 **** Fit       0.005742
 **** Fit       0.006426
 **** Fit       0.006990
 **** Fit       0.007435
 **** Fit       0.007771
 **** Fit       0.008016
 **** Fit       0.008195
 **** Fit       0.008344
 **** Fit       0.008509
 **** Fit       0.008741
 **** Fit       0.009081
 **** Fit       0.004366
 **** Fit       0.005323
 **** Fit       0.006177
 **** Fit       0.006917
 **** Fit       0.007542
 **** Fit       0.008058
 **** Fit       0.008480
 **** Fit       0.008830
 **** Fit       0.009143
 **** Fit       0.009463
 **** Fit       0.009842
 **** Fit       0.010343
 **** Fit       0.011014
 **** Fit       0.003786
 **** Fit       0.004881
 **** Fit       0.005884
 **** Fit       0.006780
 **** Fit       0.007566
 **** Fit       0.008243
 **** Fit       0.008827
 **** Fit       0.009340
 **** Fit       0.009818
 **** Fit       0.010312
 **** Fit       0.010891
 **** Fit       0.011643
 **** Fit       0.012682
 **** Fit       0.014150
 **** Fit       0.004477
 **** Fit       0.005570
 **** Fit       0.006577
 **** Fit       0.007490
 **** Fit       0.008306
 **** Fit       0.009036
 **** Fit       0.009701
 **** Fit       0.010339
 **** Fit       0.011005
 **** Fit       0.011782
 **** Fit       0.012785
 **** Fit       0.014189
 **** Fit       0.016259
 **** Fit       0.005422
 **** Fit       0.006524
 **** Fit       0.007558
 **** Fit       0.008516
 **** Fit       0.009402
 **** Fit       0.010243
 **** Fit       0.011089
 **** Fit       0.012025
 **** Fit       0.013185
 **** Fit       0.014783
 **** Fit       0.017169
 **** Fit       0.006668
 **** Fit       0.007720
 **** Fit       0.008762
 **** Fit       0.009781
 **** Fit       0.010798
 **** Fit       0.011876
 **** Fit       0.013140
 **** Fit       0.014804
 **** Fit       0.017231
 **** Fit       0.005647
 **** Fit       0.008302
 **** Fit       0.009293
 **** Fit       0.010408
 **** Fit       0.011636
 **** Fit       0.013066
 **** Fit       0.014917
 **** Fit       0.017606
 **** Fit       0.007540
 **** Fit       0.010482
 **** Fit       0.011464
 **** Fit       0.012984
 **** Fit       0.015144
 **** Fit       0.018448
 **** Fit       0.010344
 **** Fit       0.013449
 **** Fit       0.014861
 **** Fit       0.013193
 **** Fit       0.013944
 **** Fit       0.012253
 **** Fit       0.011756
 **** Fit       0.012789
 **** Fit       0.013851
 **** Fit       0.014559
 **** Fit       0.015029
 **** Fit       0.013110
 **** Fit       0.011066
 **** Fit       0.009882
 **** Fit       0.010171
 **** Fit       0.011562
 **** Fit       0.012830
 **** Fit       0.013518
 **** Fit       0.014190
 **** Fit       0.015100
 **** Fit       0.015907
 **** Fit       0.016022
 **** Fit       0.016514
 **** Fit       0.014474
 **** Fit       0.012008
 **** Fit       0.009667
 **** Fit       0.007986
 **** Fit       0.013663
 **** Fit       0.013705
 **** Fit       0.014173
 **** Fit       0.015084
 **** Fit       0.016224
 **** Fit       0.017284
 **** Fit       0.017894
 **** Fit       0.017699
 **** Fit       0.018555
 **** Fit       0.016240
 **** Fit       0.013370
 **** Fit       0.010383
 **** Fit       0.007673
 **** Fit       0.013375
 **** Fit       0.013561
 **** Fit       0.014370
 **** Fit       0.015604
 **** Fit       0.017059
 **** Fit       0.018513
 **** Fit       0.019693
 **** Fit       0.020273
 **** Fit       0.019943
 **** Fit       0.021442
 **** Fit       0.018660
 **** Fit       0.015188
 **** Fit       0.011510
 **** Fit       0.012467
 **** Fit       0.012960
 **** Fit       0.014079
 **** Fit       0.015624
 **** Fit       0.017439
 **** Fit       0.019371
 **** Fit       0.021223
 **** Fit       0.022711
 **** Fit       0.023459
 **** Fit       0.023096
 **** Fit       0.025686
 **** Fit       0.022235
 **** Fit       0.017943
 **** Fit       0.013435
 **** Fit       0.011174
 **** Fit       0.012109
 **** Fit       0.013582
 **** Fit       0.015449
 **** Fit       0.017617
 **** Fit       0.020009
 **** Fit       0.022515
 **** Fit       0.024938
 **** Fit       0.026939
 **** Fit       0.028028
 **** Fit       0.027694
 **** Fit       0.010076
 **** Fit       0.011741
 **** Fit       0.013847
 **** Fit       0.016334
 **** Fit       0.019183
 **** Fit       0.022383
 **** Fit       0.025879
 **** Fit       0.029481
 **** Fit       0.009352
 **** Fit       0.011695
 **** Fit       0.014434
 **** Fit       0.017602
 **** Fit       0.021276
 **** Fit       0.025556
 **** Fit       0.011098
 **** Fit       0.014445
 **** Fit       0.018336
 **** Fit       0.022976
 **** Fit       0.016834
 **** Fit       0.022295
 **** Fit       0.006621
 **** Fit       0.007426
 **** Fit       0.005764
 **** Fit       0.005015
 **** Fit       0.005700
 **** Fit       0.007119
 **** Fit       0.008080
 **** Fit       0.008222
 **** Fit       0.006261
 **** Fit       0.004534
 **** Fit       0.003498
 **** Fit       0.003190
 **** Fit       0.003581
 **** Fit       0.004567
 **** Fit       0.005885
 **** Fit       0.007270
 **** Fit       0.008545
 **** Fit       0.009452
 **** Fit       0.009465
 **** Fit       0.009132
 **** Fit       0.006762
 **** Fit       0.004549
 **** Fit       0.002909
 **** Fit       0.001852
 **** Fit       0.001254
 **** Fit       0.001057
 **** Fit       0.001304
 **** Fit       0.002025
 **** Fit       0.003127
 **** Fit       0.004428
 **** Fit       0.005769
 **** Fit       0.007082
 **** Fit       0.008374
 **** Fit       0.009653
 **** Fit       0.010784
 **** Fit       0.011367
 **** Fit       0.010863
 **** Fit      -0.000281
 **** Fit      -0.000926
 **** Fit      -0.001358
 **** Fit      -0.001519
 **** Fit      -0.001274
 **** Fit      -0.000546
 **** Fit       0.000599
 **** Fit       0.001984
 **** Fit       0.003428
 **** Fit       0.004818
 **** Fit       0.006131
 **** Fit       0.007419
 **** Fit       0.008770
 **** Fit       0.010254
 **** Fit       0.011834
 **** Fit       0.013219
 **** Fit      -0.003528
 **** Fit      -0.004158
 **** Fit      -0.004669
 **** Fit      -0.004834
 **** Fit      -0.004437
 **** Fit      -0.003427
 **** Fit      -0.001955
 **** Fit      -0.000264
 **** Fit       0.001426
 **** Fit       0.002991
 **** Fit       0.004402
 **** Fit       0.005707
 **** Fit       0.007006
 **** Fit       0.008432
 **** Fit       0.010123
 **** Fit       0.012176
 **** Fit      -0.008409
 **** Fit      -0.009221
 **** Fit      -0.009414
 **** Fit      -0.008748
 **** Fit      -0.007280
 **** Fit      -0.005300
 **** Fit      -0.003153
 **** Fit      -0.001098
 **** Fit       0.000731
 **** Fit       0.002309
 **** Fit       0.003680
 **** Fit       0.004939
 **** Fit       0.006210
 **** Fit       0.007648
 **** Fit       0.009438
 **** Fit       0.011788
 **** Fit      -0.009818
 **** Fit      -0.006790
 **** Fit      -0.004051
 **** Fit      -0.001739
 **** Fit       0.000150
 **** Fit       0.001695
 **** Fit       0.003016
 **** Fit       0.004254
 **** Fit       0.005577
 **** Fit       0.007195
 **** Fit      -0.011469
 **** Fit      -0.007719
 **** Fit      -0.004734
 **** Fit      -0.002426
 **** Fit      -0.000647
 **** Fit       0.000764
 **** Fit       0.001968
 **** Fit       0.003133
 **** Fit      -0.009898
 **** Fit      -0.006523
 **** Fit      -0.004084
 **** Fit      -0.002311
 **** Fit      -0.000979
 **** Fit      -0.001454
 **** Fit      -0.001469
 **** Fit      -0.001662
 **** Fit      -0.002039
 **** Fit      -0.002564
 **** Fit      -0.000731
 **** Fit      -0.000703
 **** Fit      -0.000836
 **** Fit      -0.001147
 **** Fit      -0.001620
 **** Fit      -0.002211
 **** Fit      -0.002858
 **** Fit      -0.000158
 **** Fit      -0.000014
 **** Fit       0.000036
 **** Fit      -0.000056
 **** Fit      -0.000312
 **** Fit      -0.000733
 **** Fit      -0.001295
 **** Fit      -0.001950
 **** Fit      -0.002634
 **** Fit      -0.003289
 **** Fit       0.000500
 **** Fit       0.000660
 **** Fit       0.000756
 **** Fit       0.000732
 **** Fit       0.000552
 **** Fit       0.000199
 **** Fit      -0.000324
 **** Fit      -0.000992
 **** Fit      -0.001751
 **** Fit      -0.002528
 **** Fit      -0.003247
 **** Fit      -0.003877
 **** Fit       0.001243
 **** Fit       0.001375
 **** Fit       0.001478
 **** Fit       0.001492
 **** Fit       0.001375
 **** Fit       0.001099
 **** Fit       0.000649
 **** Fit       0.000027
 **** Fit      -0.000741
 **** Fit      -0.001605
 **** Fit      -0.002487
 **** Fit      -0.003299
 **** Fit      -0.003984
 **** Fit       0.002167
 **** Fit       0.002225
 **** Fit       0.002277
 **** Fit       0.002263
 **** Fit       0.002136
 **** Fit       0.001862
 **** Fit       0.001417
 **** Fit       0.000792
 **** Fit      -0.000005
 **** Fit      -0.000942
 **** Fit      -0.001957
 **** Fit      -0.002963
 **** Fit      -0.003866
 **** Fit      -0.004620
 **** Fit       0.003259
 **** Fit       0.003210
 **** Fit       0.003155
 **** Fit       0.003029
 **** Fit       0.002780
 **** Fit       0.002369
 **** Fit       0.001769
 **** Fit       0.000968
 **** Fit      -0.000024
 **** Fit      -0.001172
 **** Fit      -0.002408
 **** Fit      -0.003639
 **** Fit      -0.004780
 **** Fit       0.004419
 **** Fit       0.004226
 **** Fit       0.004015
 **** Fit       0.003712
 **** Fit       0.003258
 **** Fit       0.002609
 **** Fit       0.001738
 **** Fit       0.000633
 **** Fit      -0.000692
 **** Fit      -0.002200
 **** Fit      -0.003840
 **** Fit       0.006079
 **** Fit       0.005629
 **** Fit       0.005262
 **** Fit       0.004866
 **** Fit       0.004358
 **** Fit       0.003671
 **** Fit       0.002758
 **** Fit       0.001581
 **** Fit       0.000113
 **** Fit      -0.001678
 **** Fit       0.007219
 **** Fit       0.006607
 **** Fit       0.006002
 **** Fit       0.005280
 **** Fit       0.004345
 **** Fit       0.003113
 **** Fit       0.001486
 **** Fit       0.009223
 **** Fit       0.008317
 **** Fit       0.007480
 **** Fit       0.006532
 **** Fit       0.005322
 **** Fit       0.010284
 **** Fit      -0.005189
 **** Fit      -0.005828
 **** Fit      -0.004686
 **** Fit      -0.004604
 **** Fit      -0.005258
 **** Fit      -0.006035
 **** Fit      -0.006488
 **** Fit      -0.004188
 **** Fit      -0.004099
 **** Fit      -0.004460
 **** Fit      -0.005436
 **** Fit      -0.006642
 **** Fit      -0.007345
 **** Fit      -0.007206
 **** Fit      -0.003869
 **** Fit      -0.003696
 **** Fit      -0.003825
 **** Fit      -0.004503
 **** Fit      -0.005793
 **** Fit      -0.007386
 **** Fit      -0.008702
 **** Fit      -0.009278
 **** Fit      -0.009033
 **** Fit      -0.008211
 **** Fit      -0.003542
 **** Fit      -0.003345
 **** Fit      -0.003487
 **** Fit      -0.004245
 **** Fit      -0.005758
 **** Fit      -0.007835
 **** Fit      -0.009948
 **** Fit      -0.011483
 **** Fit      -0.012059
 **** Fit      -0.011673
 **** Fit      -0.010604
 **** Fit      -0.003467
 **** Fit      -0.003130
 **** Fit      -0.003048
 **** Fit      -0.003561
 **** Fit      -0.004982
 **** Fit      -0.007377
 **** Fit      -0.010385
 **** Fit      -0.013293
 **** Fit      -0.015351
 **** Fit      -0.016119
 **** Fit      -0.015604
 **** Fit      -0.014150
 **** Fit      -0.012213
 **** Fit      -0.003540
 **** Fit      -0.003091
 **** Fit      -0.002782
 **** Fit      -0.002975
 **** Fit      -0.004113
 **** Fit      -0.006526
 **** Fit      -0.010165
 **** Fit      -0.014452
 **** Fit      -0.018433
 **** Fit      -0.021170
 **** Fit      -0.022145
 **** Fit      -0.021388
 **** Fit      -0.019345
 **** Fit      -0.016608
 **** Fit      -0.003233
 **** Fit      -0.002708
 **** Fit      -0.002636
 **** Fit      -0.003637
 **** Fit      -0.006336
 **** Fit      -0.011008
 **** Fit      -0.024140
 **** Fit      -0.003583
 **** Fit      -0.002863
 **** Fit      -0.002490
 **** Fit      -0.003219
 **** Fit      -0.006005
 **** Fit      -0.002822
 **** Fit      -0.002610
 **** Fit      -0.002823
 **** Fit      -0.002420
 **** Fit      -0.001816
 **** Fit      -0.002263
 **** Fit      -0.003228
 **** Fit      -0.003549
 **** Fit      -0.002028
 **** Fit      -0.001178
 **** Fit      -0.000898
 **** Fit      -0.001168
 **** Fit      -0.001843
 **** Fit      -0.004466
 **** Fit      -0.003268
 **** Fit      -0.001653
 **** Fit      -0.000733
 **** Fit      -0.000209
 **** Fit      -0.000080
 **** Fit      -0.000309
 **** Fit      -0.000824
 **** Fit      -0.001537
 **** Fit      -0.005603
 **** Fit      -0.004317
 **** Fit      -0.002901
 **** Fit      -0.001293
 **** Fit      -0.000324
 **** Fit       0.000310
 **** Fit       0.000615
 **** Fit       0.000614
 **** Fit       0.000341
 **** Fit      -0.000155
 **** Fit      -0.000814
 **** Fit      -0.001577
 **** Fit      -0.005751
 **** Fit      -0.004115
 **** Fit      -0.002578
 **** Fit      -0.000939
 **** Fit       0.000068
 **** Fit       0.000763
 **** Fit       0.001162
 **** Fit       0.001285
 **** Fit       0.001155
 **** Fit       0.000805
 **** Fit       0.000273
 **** Fit      -0.000391
 **** Fit      -0.001138
 **** Fit      -0.005775
 **** Fit      -0.003896
 **** Fit      -0.002264
 **** Fit      -0.000571
 **** Fit       0.000430
 **** Fit       0.001149
 **** Fit       0.001605
 **** Fit       0.001818
 **** Fit       0.001804
 **** Fit       0.001585
 **** Fit       0.001188
 **** Fit       0.000643
 **** Fit      -0.000008
 **** Fit      -0.000719
 **** Fit      -0.005490
 **** Fit      -0.003513
 **** Fit      -0.001877
 **** Fit      -0.000158
 **** Fit       0.000848
 **** Fit       0.001576
 **** Fit       0.002053
 **** Fit       0.002294
 **** Fit       0.002318
 **** Fit       0.002141
 **** Fit       0.001785
 **** Fit       0.001279
 **** Fit       0.000657
 **** Fit      -0.000032
 **** Fit      -0.005272
 **** Fit      -0.003157
 **** Fit      -0.001475
 **** Fit       0.000346
 **** Fit       0.001304
 **** Fit       0.002009
 **** Fit       0.002484
 **** Fit       0.002744
 **** Fit       0.002801
 **** Fit       0.002668
 **** Fit       0.002364
 **** Fit       0.001910
 **** Fit       0.001338
 **** Fit       0.000689
 **** Fit      -0.002510
 **** Fit      -0.000903
 **** Fit       0.000995
 **** Fit       0.001874
 **** Fit       0.002532
 **** Fit       0.002984
 **** Fit       0.003237
 **** Fit       0.003300
 **** Fit       0.003183
 **** Fit       0.002901
 **** Fit       0.002471
 **** Fit       0.001924
 **** Fit       0.001302
 **** Fit      -0.001569
 **** Fit      -0.000132
 **** Fit       0.001851
 **** Fit       0.002633
 **** Fit       0.003233
 **** Fit       0.003644
 **** Fit       0.003862
 **** Fit       0.003889
 **** Fit       0.003735
 **** Fit       0.003412
 **** Fit       0.002944
 **** Fit       0.004156
 **** Fit       0.004521
 **** Fit       0.004693
 **** Fit       0.004668
 **** Fit       0.004451
 **** Fit       0.004062
 **** Fit       0.005886
 **** Fit       0.005817
 -----------------------------------------------------------------
 Leave Link  602 at Thu Jun 16 14:28:44 2016, MaxMem=   33554432 cpu:       5.9

 Test job not archived.
 1\1\GINC-NODE42\FOpt\RHF\6-31G(d)\C14H18N4O2S1\DAVE\16-Jun-2016\0\\#HF
 /6-31G* SCF=tight Test Pop=MK iop(6/33=2) iop(6/42=6) opt\\remark line
  goes here\\0,1\C,0.7670748171,2.5952054448,9.6516387175\C,-4.53520014
 76,9.203802211,12.893274246\C,-3.1982144303,8.9474513363,12.7104729589
 \C,1.6999930518,2.2023445568,10.790851719\C,-3.1925479575,7.3076819931
 ,14.4858582041\C,-5.2273430342,8.5107518924,13.8808230458\C,-2.5184665
 138,8.004414679,13.4984870776\C,-4.5444749684,7.5799840664,14.65372961
 89\C,-6.9320521496,7.9032287317,15.1235131106\C,-0.261697752,6.9556638
 909,13.7691301769\C,1.9648445779,4.1647150926,12.2364973969\C,-8.32605
 39967,7.8419245636,15.668888629\C,1.1452101923,7.0764526445,13.2057933
 153\C,2.1013171,6.0376352003,13.7876574397\N,-6.5745837134,8.66502583,
 14.176266024\N,1.4279075822,2.9335843936,12.0178880379\N,-1.1469157464
 ,7.8322196738,13.2235928865\N,1.7367075752,4.6712457698,13.4864475547\
 O,-0.5465976072,6.1580087349,14.6223011762\O,2.5954557929,4.7596795009
 ,11.396691348\S,-5.6629071434,6.8786373234,15.7966717986\H,0.944331570
 6,4.3326263505,13.9858892637\H,-0.7853178068,8.4274437299,12.513209632
 1\H,1.1241343216,2.4138834158,12.8085963447\H,3.0914964855,6.215900563
 5,13.3968618987\H,2.1400063864,6.1358035061,14.8638460652\H,1.11601814
 73,6.9778052324,12.1254794046\H,1.5150020796,8.0765822299,13.423098601
 8\H,-8.739240861,6.844366017,15.5635918987\H,-8.3409750998,8.099884782
 2,16.7225360357\H,-8.943982402,8.5414088563,15.123454854\H,-2.68652034
 38,6.5876563618,15.0912962123\H,2.7291191347,2.3662583256,10.499624043
 6\H,1.587122252,1.1483268184,11.017380983\H,-2.6593207938,9.4796980655
 ,11.9456858374\H,-5.0486545456,9.9263405514,12.2868544312\H,-0.2690108
 851,2.4165519184,9.9211078155\H,0.8859265961,3.6452348501,9.4144379092
 \H,0.993410235,2.0165708952,8.7605742869\\Version=EM64L-G09RevC.01\Sta
 te=1-A\HF=-1305.7419634\RMSD=8.338e-09\RMSF=6.025e-06\Dipole=-0.438159
 3,-0.0143118,0.2071277\Quadrupole=-5.5366549,9.5873542,-4.0506993,3.50
 43731,1.2371638,-2.78987\PG=C01 [X(C14H18N4O2S1)]\\@


 I (ERNEST RUTHERFORD) CAME INTO THE ROOM, WHICH WAS HALF DARK, AND PRESENTLY
 SPOTTED LORD KELVIN IN THE AUDIENCE AND REALIZED I WAS IN TROUBLE AT
 THE LAST PART OF MY SPEECH DEALING THE AGE OF THE EARTH, WHERE MY VIEWS
 CONFLICTED WITH HIS.  TO MY RELIEF KELVIN FELL FAST ASLEEP, BUT AS I CAME
 TO THE IMPORTANT POINT, I SAW THE OLD BIRD SIT UP AND COCK A BALEFUL GLANCE
 AT ME! THEN A SUDDEN INSPIRATION CAME AND I SAID LORD KELVIN HAD LIMITED
 THE AGE OF THE EARTH PROVIDED NO NEW SOURCE WAS DISCOVERED. THAT
 PROPHETIC UTTERANCE REFERS TO WHAT WE ARE NOW CONSIDERING TONIGHT, RADIUM!
 BEHOLD!  THE OLD BOY BEAMED UPON ME.
 Job cpu time:  0 days  2 hours 20 minutes  6.9 seconds.
 File lengths (MBytes):  RWF=     90 Int=      0 D2E=      0 Chk=     11 Scr=      1
 Normal termination of Gaussian 09 at Thu Jun 16 14:28:45 2016.
