 Entering Gaussian System, Link 0=/usr/local/g09_c01/g09
 Initial command:
 /usr/local/g09_c01/l1.exe /scr/gf/dave/80934/Gau-3442.inp -scrdir=/scr/gf/dave/80934/
 Entering Link 1 = /usr/local/g09_c01/l1.exe PID=      3444.
  
 Copyright (c) 1988,1990,1992,1993,1995,1998,2003,2009,2011,
            Gaussian, Inc.  All Rights Reserved.
  
 This is part of the Gaussian(R) 09 program.  It is based on
 the Gaussian(R) 03 system (copyright 2003, Gaussian, Inc.),
 the Gaussian(R) 98 system (copyright 1998, Gaussian, Inc.),
 the Gaussian(R) 94 system (copyright 1995, Gaussian, Inc.),
 the Gaussian 92(TM) system (copyright 1992, Gaussian, Inc.),
 the Gaussian 90(TM) system (copyright 1990, Gaussian, Inc.),
 the Gaussian 88(TM) system (copyright 1988, Gaussian, Inc.),
 the Gaussian 86(TM) system (copyright 1986, Carnegie Mellon
 University), and the Gaussian 82(TM) system (copyright 1983,
 Carnegie Mellon University). Gaussian is a federally registered
 trademark of Gaussian, Inc.
  
 This software contains proprietary and confidential information,
 including trade secrets, belonging to Gaussian, Inc.
  
 This software is provided under written license and may be
 used, copied, transmitted, or stored only in accord with that
 written license.
  
 The following legend is applicable only to US Government
 contracts under FAR:
  
                    RESTRICTED RIGHTS LEGEND
  
 Use, reproduction and disclosure by the US Government is
 subject to restrictions as set forth in subparagraphs (a)
 and (c) of the Commercial Computer Software - Restricted
 Rights clause in FAR 52.227-19.
  
 Gaussian, Inc.
 340 Quinnipiac St., Bldg. 40, Wallingford CT 06492
  
  
 ---------------------------------------------------------------
 Warning -- This program may not be used in any manner that
 competes with the business of Gaussian, Inc. or will provide
 assistance to any competitor of Gaussian, Inc.  The licensee
 of this program is prohibited from giving any competitor of
 Gaussian, Inc. access to this program.  By using this program,
 the user acknowledges that Gaussian, Inc. is engaged in the
 business of creating and licensing software in the field of
 computational chemistry and represents and warrants to the
 licensee that it is not a competitor of Gaussian, Inc. and that
 it will not use this program in any manner prohibited above.
 ---------------------------------------------------------------
  

 Cite this work as:
 Gaussian 09, Revision C.01,
 M. J. Frisch, G. W. Trucks, H. B. Schlegel, G. E. Scuseria, 
 M. A. Robb, J. R. Cheeseman, G. Scalmani, V. Barone, B. Mennucci, 
 G. A. Petersson, H. Nakatsuji, M. Caricato, X. Li, H. P. Hratchian, 
 A. F. Izmaylov, J. Bloino, G. Zheng, J. L. Sonnenberg, M. Hada, 
 M. Ehara, K. Toyota, R. Fukuda, J. Hasegawa, M. Ishida, T. Nakajima, 
 Y. Honda, O. Kitao, H. Nakai, T. Vreven, J. A. Montgomery, Jr., 
 J. E. Peralta, F. Ogliaro, M. Bearpark, J. J. Heyd, E. Brothers, 
 K. N. Kudin, V. N. Staroverov, T. Keith, R. Kobayashi, J. Normand, 
 K. Raghavachari, A. Rendell, J. C. Burant, S. S. Iyengar, J. Tomasi, 
 M. Cossi, N. Rega, J. M. Millam, M. Klene, J. E. Knox, J. B. Cross, 
 V. Bakken, C. Adamo, J. Jaramillo, R. Gomperts, R. E. Stratmann, 
 O. Yazyev, A. J. Austin, R. Cammi, C. Pomelli, J. W. Ochterski, 
 R. L. Martin, K. Morokuma, V. G. Zakrzewski, G. A. Voth, 
 P. Salvador, J. J. Dannenberg, S. Dapprich, A. D. Daniels, 
 O. Farkas, J. B. Foresman, J. V. Ortiz, J. Cioslowski, 
 and D. J. Fox, Gaussian, Inc., Wallingford CT, 2010.
 
 ******************************************
 Gaussian 09:  EM64L-G09RevC.01 23-Sep-2011
                17-Jun-2016 
 ******************************************
 %chk=molecule
 ----------------------------------------------------------------------
 #HF/6-31G* SCF=tight Test Pop=MK iop(6/33=2) iop(6/42=6) opt(MaxCyc=10
 0)
 ----------------------------------------------------------------------
 1/6=100,18=20,19=15,38=1/1,3;
 2/9=110,12=2,17=6,18=5,40=1/2;
 3/5=1,6=6,7=1,11=9,16=1,25=1,30=1,71=1/1,2,3;
 4//1;
 5/5=2,32=2,38=5/2;
 6/7=2,8=2,9=2,10=2,15=8,20=1,28=1,33=2,42=6/1,2;
 7//1,2,3,16;
 1/6=100,18=20,19=15/3(2);
 2/9=110/2;
 99//99;
 2/9=110/2;
 3/5=1,6=6,7=1,11=9,16=1,25=1,30=1,71=1/1,2,3;
 4/5=5,16=3/1;
 5/5=2,32=2,38=5/2;
 7//1,2,3,16;
 1/6=100,18=20,19=15/3(-5);
 2/9=110/2;
 6/7=2,8=2,9=2,10=2,15=8,19=2,20=1,28=1,33=2,42=6/1,2;
 99/9=1/99;
 ---------------------
 remark line goes here
 ---------------------
 Charge = -2 Multiplicity = 1
 Symbolic Z-Matrix:
 C                     5.445    -2.948     5.33 
 C                     6.319    -4.192     5.463 
 C                     4.292    -3.064     6.326 
 O                     5.818    -5.271     5.032 
 O                     7.448    -4.        5.988 
 O                     4.141    -2.063     7.111 
 O                     3.634    -4.14      6.256 
 H                     5.047    -2.881     4.306 
 H                     6.04     -2.05      5.551 
 

 GradGradGradGradGradGradGradGradGradGradGradGradGradGradGradGradGradGrad
 Berny optimization.
 Initialization pass.
                           ----------------------------
                           !    Initial Parameters    !
                           ! (Angstroms and Degrees)  !
 --------------------------                            --------------------------
 ! Name  Definition              Value          Derivative Info.                !
 --------------------------------------------------------------------------------
 ! R1    R(1,2)                  1.5261         estimate D2E/DX2                !
 ! R2    R(1,3)                  1.528          estimate D2E/DX2                !
 ! R3    R(1,8)                  1.1007         estimate D2E/DX2                !
 ! R4    R(1,9)                  1.0997         estimate D2E/DX2                !
 ! R5    R(2,4)                  1.2653         estimate D2E/DX2                !
 ! R6    R(2,5)                  1.2598         estimate D2E/DX2                !
 ! R7    R(3,6)                  1.281          estimate D2E/DX2                !
 ! R8    R(3,7)                  1.2632         estimate D2E/DX2                !
 ! A1    A(2,1,3)              108.267          estimate D2E/DX2                !
 ! A2    A(2,1,8)              109.7416         estimate D2E/DX2                !
 ! A3    A(2,1,9)              109.7711         estimate D2E/DX2                !
 ! A4    A(3,1,8)              109.7665         estimate D2E/DX2                !
 ! A5    A(3,1,9)              109.8325         estimate D2E/DX2                !
 ! A6    A(8,1,9)              109.4457         estimate D2E/DX2                !
 ! A7    A(1,2,4)              116.0188         estimate D2E/DX2                !
 ! A8    A(1,2,5)              115.1703         estimate D2E/DX2                !
 ! A9    A(4,2,5)              128.8108         estimate D2E/DX2                !
 ! A10   A(1,3,6)              115.4074         estimate D2E/DX2                !
 ! A11   A(1,3,7)              114.9357         estimate D2E/DX2                !
 ! A12   A(6,3,7)              129.6554         estimate D2E/DX2                !
 ! D1    D(3,1,2,4)             70.9184         estimate D2E/DX2                !
 ! D2    D(3,1,2,5)           -109.2142         estimate D2E/DX2                !
 ! D3    D(8,1,2,4)            -48.872          estimate D2E/DX2                !
 ! D4    D(8,1,2,5)            130.9954         estimate D2E/DX2                !
 ! D5    D(9,1,2,4)           -169.1938         estimate D2E/DX2                !
 ! D6    D(9,1,2,5)             10.6736         estimate D2E/DX2                !
 ! D7    D(2,1,3,6)            127.0293         estimate D2E/DX2                !
 ! D8    D(2,1,3,7)            -52.5715         estimate D2E/DX2                !
 ! D9    D(8,1,3,6)           -113.1959         estimate D2E/DX2                !
 ! D10   D(8,1,3,7)             67.2033         estimate D2E/DX2                !
 ! D11   D(9,1,3,6)              7.18           estimate D2E/DX2                !
 ! D12   D(9,1,3,7)           -172.4209         estimate D2E/DX2                !
 --------------------------------------------------------------------------------
 Trust Radius=3.00D-01 FncErr=1.00D-07 GrdErr=1.00D-07
 Number of steps in this run=    100 maximum allowed number of steps=    100.
 GradGradGradGradGradGradGradGradGradGradGradGradGradGradGradGradGradGrad

                          Input orientation:                          
 ---------------------------------------------------------------------
 Center     Atomic      Atomic             Coordinates (Angstroms)
 Number     Number       Type             X           Y           Z
 ---------------------------------------------------------------------
      1          6           0        5.445000   -2.948000    5.330000
      2          6           0        6.319000   -4.192000    5.463000
      3          6           0        4.292000   -3.064000    6.326000
      4          8           0        5.818000   -5.271000    5.032000
      5          8           0        7.448000   -4.000000    5.988000
      6          8           0        4.141000   -2.063000    7.111000
      7          8           0        3.634000   -4.140000    6.256000
      8          1           0        5.047000   -2.881000    4.306000
      9          1           0        6.040000   -2.050000    5.551000
 ---------------------------------------------------------------------
                    Distance matrix (angstroms):
                    1          2          3          4          5
     1  C    0.000000
     2  C    1.526139   0.000000
     3  C    1.528032   2.475052   0.000000
     4  O    2.371553   1.265307   2.978919   0.000000
     5  O    2.356200   1.259813   3.309181   2.277340   0.000000
     6  O    2.378151   3.462980   1.281026   4.174426   3.993663
     7  O    2.357554   2.800139   1.263186   2.747215   3.825967
     8  H    1.100668   2.162257   2.164235   2.614119   3.137847
     9  H    1.099668   2.161886   2.164330   3.270090   2.444572
                    6          7          8          9
     6  O    0.000000
     7  O    2.302608   0.000000
     8  H    3.059082   2.717379   0.000000
     9  H    2.457635   3.264041   1.796284   0.000000
 Stoichiometry    C3H2O4(2-)
 Framework group  C1[X(C3H2O4)]
 Deg. of freedom    21
 Full point group                 C1      NOp   1
 Largest Abelian subgroup         C1      NOp   1
 Largest concise Abelian subgroup C1      NOp   1
                         Standard orientation:                         
 ---------------------------------------------------------------------
 Center     Atomic      Atomic             Coordinates (Angstroms)
 Number     Number       Type             X           Y           Z
 ---------------------------------------------------------------------
      1          6           0       -0.032622   -0.473155    0.797633
      2          6           0        1.233299   -0.078625    0.042060
      3          6           0       -1.238342    0.048925    0.017535
      4          8           0        1.528673    1.151618    0.058218
      5          8           0        1.844660   -1.030215   -0.512777
      6          8           0       -2.135408   -0.823559   -0.256459
      7          8           0       -1.196171    1.278752   -0.267749
      8          1           0       -0.019050   -0.027568    1.803981
      9          1           0       -0.089000   -1.568070    0.882789
 ---------------------------------------------------------------------
 Rotational constants (GHZ):      5.1281505      2.0850529      1.6582167
 Standard basis: 6-31G(d) (6D, 7F)
 There are   109 symmetry adapted basis functions of A   symmetry.
 Integral buffers will be    131072 words long.
 Raffenetti 1 integral format.
 Two-electron integral symmetry is turned on.
   109 basis functions,   204 primitive gaussians,   109 cartesian basis functions
    27 alpha electrons       27 beta electrons
       nuclear repulsion energy       279.6212025274 Hartrees.
 NAtoms=    9 NActive=    9 NUniq=    9 SFac= 1.00D+00 NAtFMM=   60 NAOKFM=F Big=F
 One-electron integrals computed using PRISM.
 NBasis=   109 RedAO= T  NBF=   109
 NBsUse=   109 1.00D-06 NBFU=   109
 Harris functional with IExCor=  205 diagonalized for initial guess.
 ExpMin= 1.61D-01 ExpMax= 5.48D+03 ExpMxC= 8.25D+02 IAcc=1 IRadAn=         1 AccDes= 0.00D+00
 HarFok:  IExCor=  205 AccDes= 0.00D+00 IRadAn=         1 IDoV= 1
 ScaDFX=  1.000000  1.000000  1.000000  1.000000
 FoFCou: FMM=F IPFlag=           0 FMFlag=      100000 FMFlg1=           0
         NFxFlg=           0 DoJE=T BraDBF=F KetDBF=T FulRan=T
         Omega=  0.000000  0.000000  1.000000  0.000000  0.000000 ICntrl=     500 IOpCl=  0
         NMat0=    1 NMatS0=    1 NMatT0=    0 NMatD0=    1 NMtDS0=    0 NMtDT0=    0
         I1Cent=           4 NGrid=           0.
 Petite list used in FoFCou.
 Initial guess orbital symmetries:
       Occupied  (A) (A) (A) (A) (A) (A) (A) (A) (A) (A) (A) (A)
                 (A) (A) (A) (A) (A) (A) (A) (A) (A) (A) (A) (A)
                 (A) (A) (A)
       Virtual   (A) (A) (A) (A) (A) (A) (A) (A) (A) (A) (A) (A)
                 (A) (A) (A) (A) (A) (A) (A) (A) (A) (A) (A) (A)
                 (A) (A) (A) (A) (A) (A) (A) (A) (A) (A) (A) (A)
                 (A) (A) (A) (A) (A) (A) (A) (A) (A) (A) (A) (A)
                 (A) (A) (A) (A) (A) (A) (A) (A) (A) (A) (A) (A)
                 (A) (A) (A) (A) (A) (A) (A) (A) (A) (A) (A) (A)
                 (A) (A) (A) (A) (A) (A) (A) (A) (A) (A)
 The electronic state of the initial guess is 1-A.
 Requested convergence on RMS density matrix=1.00D-08 within 128 cycles.
 Requested convergence on MAX density matrix=1.00D-06.
 Requested convergence on             energy=1.00D-06.
 No special actions if energy rises.
 Keep R1 ints in memory in canonical form, NReq=18848280.
 SCF Done:  E(RHF) =  -414.115854100     A.U. after   14 cycles
             Convg  =    0.5611D-08             -V/T =  2.0020

 **********************************************************************

            Population analysis using the SCF density.

 **********************************************************************

 Orbital symmetries:
 BldTbl:  Degeneracy threshold= 1.00D-02
       Occupied  (A) (A) (A) (A) (A) (A) (A) (A) (A) (A) (A) (A)
                 (A) (A) (A) (A) (A) (A) (A) (A) (A) (A) (A) (A)
                 (A) (A) (A)
       Virtual   (A) (A) (A) (A) (A) (A) (A) (A) (A) (A) (A) (A)
                 (A) (A) (A) (A) (A) (A) (A) (A) (A) (A) (A) (A)
                 (A) (A) (A) (A) (A) (A) (A) (A) (A) (A) (A) (A)
                 (A) (A) (A) (A) (A) (A) (A) (A) (A) (A) (A) (A)
                 (A) (A) (A) (A) (A) (A) (A) (A) (A) (A) (A) (A)
                 (A) (A) (A) (A) (A) (A) (A) (A) (A) (A) (A) (A)
                 (A) (A) (A) (A) (A) (A) (A) (A) (A) (A)
 The electronic state is 1-A.
 Alpha  occ. eigenvalues --  -20.12657 -20.12381 -20.12124 -20.11280 -10.97155
 Alpha  occ. eigenvalues --  -10.96433 -10.86511  -0.99361  -0.97926  -0.89032
 Alpha  occ. eigenvalues --   -0.88284  -0.63424  -0.37065  -0.32921  -0.26200
 Alpha  occ. eigenvalues --   -0.25728  -0.24691  -0.21488  -0.18691  -0.16003
 Alpha  occ. eigenvalues --   -0.15405  -0.04542  -0.03868  -0.02907  -0.02332
 Alpha  occ. eigenvalues --   -0.00955  -0.00168
 Alpha virt. eigenvalues --    0.55782   0.62318   0.63527   0.65191   0.77120
 Alpha virt. eigenvalues --    0.80517   0.86582   0.88579   0.92331   0.97638
 Alpha virt. eigenvalues --    1.15300   1.18268   1.20886   1.22377   1.23612
 Alpha virt. eigenvalues --    1.28565   1.29389   1.31808   1.33027   1.37914
 Alpha virt. eigenvalues --    1.44941   1.48059   1.50164   1.51352   1.53706
 Alpha virt. eigenvalues --    1.57521   1.59647   1.61985   1.67293   1.71064
 Alpha virt. eigenvalues --    1.72629   1.73749   1.76763   1.77507   1.81583
 Alpha virt. eigenvalues --    1.91065   2.08812   2.09323   2.11680   2.15654
 Alpha virt. eigenvalues --    2.20470   2.24415   2.38122   2.42798   2.45213
 Alpha virt. eigenvalues --    2.48310   2.51424   2.51763   2.53027   2.53980
 Alpha virt. eigenvalues --    2.55891   2.56216   2.59131   2.63881   2.67066
 Alpha virt. eigenvalues --    2.68506   2.72229   2.76129   2.81346   2.87635
 Alpha virt. eigenvalues --    2.97496   3.03945   3.10327   3.24655   3.26009
 Alpha virt. eigenvalues --    3.43232   3.44887   3.53142   3.55948   3.62765
 Alpha virt. eigenvalues --    3.67708   3.69828   3.72198   3.85025   3.90162
 Alpha virt. eigenvalues --    4.66292   4.70917   4.88760   4.98887   5.14357
 Alpha virt. eigenvalues --    5.18625   5.36043
          Condensed to atoms (all electrons):
              1          2          3          4          5          6
     1  C    5.635796   0.313952   0.322287  -0.124364  -0.129996  -0.123628
     2  C    0.313952   4.034572  -0.021719   0.484870   0.514181  -0.000471
     3  C    0.322287  -0.021719   4.019272   0.000881   0.000555   0.497795
     4  O   -0.124364   0.484870   0.000881   8.498916  -0.082216   0.000035
     5  O   -0.129996   0.514181   0.000555  -0.082216   8.507607  -0.000111
     6  O   -0.123628  -0.000471   0.497795   0.000035  -0.000111   8.533779
     7  O   -0.137076   0.006069   0.505778  -0.006147  -0.000008  -0.077901
     8  H    0.330932  -0.024764  -0.020723   0.003889   0.003183   0.001751
     9  H    0.334477  -0.034086  -0.030335   0.004467   0.008743   0.007499
              7          8          9
     1  C   -0.137076   0.330932   0.334477
     2  C    0.006069  -0.024764  -0.034086
     3  C    0.505778  -0.020723  -0.030335
     4  O   -0.006147   0.003889   0.004467
     5  O   -0.000008   0.003183   0.008743
     6  O   -0.077901   0.001751   0.007499
     7  O    8.461921   0.002035   0.004279
     8  H    0.002035   0.663909  -0.034648
     9  H    0.004279  -0.034648   0.645299
 Mulliken atomic charges:
              1
     1  C   -0.422379
     2  C    0.727396
     3  C    0.726208
     4  O   -0.780330
     5  O   -0.821938
     6  O   -0.838748
     7  O   -0.758951
     8  H    0.074437
     9  H    0.094304
 Sum of Mulliken atomic charges =  -2.00000
 Mulliken charges with hydrogens summed into heavy atoms:
              1
     1  C   -0.253638
     2  C    0.727396
     3  C    0.726208
     4  O   -0.780330
     5  O   -0.821938
     6  O   -0.838748
     7  O   -0.758951
 Sum of Mulliken charges with hydrogens summed into heavy atoms =  -2.00000
 DipInt: DoE/N= T F RetVal/Mat= T F Init=T NMatP=  1 IDeriv=0 Min/MaxMlt=  0  4
 Entering OneElI...
 OneElI was handed    33521951 working-precision words.
 Multipole integrals L=0 to 4 MinM= 0 MaxM= 0.
 Requested accuracy = 0.1000D-12
 PrsmSu:  NPrtUS=   1 ThrOK=F IAlg=1 NPAlg=1 LenDen=           0.
 Prism:   IPart=     0 DynPar=F LinDyn=F Incr=           5.
 PRISM was handed    33464279 working-precision words and   504 shell-pairs
 IPart=  0 NShTot=         504 NBatch=          38 AvBLen=        13.3
 PrSmSu:  NxtVal=              6.
 Electronic moments (au):
        -54.00000000         -0.03425204         -0.50139078          1.16695793
       -458.52691768       -192.41220712        -71.63825672         -0.80675791
          0.07673520         -0.97775900         97.32018823        -81.22516139
        -60.71020019        -32.92737725        166.83625288        184.77330086
        -13.87083622         36.90789550         39.79798385        -63.23277587
      -6296.74025782      -1360.54147954       -432.33827571       -377.00471841
          3.97311608        106.56376874         27.64820257         25.13420553
         27.83397609      -1716.01848748       -434.45169130       -229.96348433
       -269.35448076          2.04500022         51.63579960
 Electronic spatial extent (au):  <R**2>=            722.5774
 DipInt: DoE/N= F T RetVal/Mat= T F Init=T NMatP=  1 IDeriv=0 Min/MaxMlt=  0  4
 Nuclear    moments (au):
         52.00000000          0.00000000          0.00000000          0.00000000
        400.61996984        148.06521062         39.61651297          0.00000000
          0.00000000          0.00000000        -87.30300935         75.83269825
         55.59604932         29.77454114       -149.84120863       -166.90642410
         12.59950009        -33.43439971        -36.34027003         57.03144496
       4425.53586073        695.02180343        181.79576815        336.44561482
         -2.15419390        -96.48341532        -26.10438599        -22.79330831
        -21.08648185       1240.11320284        133.53752940         80.80714644
        247.19575581         -1.94481204        -47.61095921
 Total      moments (au):
         -2.00000000         -0.03425204         -0.50139078          1.16695793
        -57.90694784        -44.34699650        -32.02174375         -0.80675791
          0.07673520         -0.97775900         10.01717888         -5.39246314
         -5.11415087         -3.15283611         16.99504425         17.86687675
         -1.27133613          3.47349579          3.45771381         -6.20133090
      -1871.20439710       -665.51967611       -250.54250756        -40.55910360
          1.81892219         10.08035342          1.54381658          2.34089721
          6.74749424       -475.90528464       -300.91416190       -149.15633789
        -22.15872495          0.10018818          4.02484039
 Traceless Quadrup. (au):
        -13.14838514          0.41156620         12.73681894         -0.80675791
          0.07673520         -0.97775900
 Charge=             -2.0000 electrons
 Dipole moment (field-independent basis, Debye):
    X=             -0.0871    Y=             -1.2744    Z=              2.9661  Tot=              3.2295
 Quadrupole moment (field-independent basis, Debye-Ang):
   XX=            -77.8868   YY=            -59.6482   ZZ=            -43.0703
   XY=             -1.0851   XZ=              0.1032   YZ=             -1.3151
 Traceless Quadrupole moment (field-independent basis, Debye-Ang):
   XX=            -17.6850   YY=              0.5536   ZZ=             17.1315
   XY=             -1.0851   XZ=              0.1032   YZ=             -1.3151
 Octapole moment (field-independent basis, Debye-Ang**2):
  XXX=              7.1298  YYY=             -3.8381  ZZZ=             -3.6401  XYY=             -2.2441
  XXY=             12.0964  XXZ=             12.7170  XZZ=             -0.9049  YZZ=              2.4723
  YYZ=              2.4611  XYZ=             -4.4139
 Hexadecapole moment (field-independent basis, Debye-Ang**3):
 XXXX=           -704.7853 YYYY=           -250.6666 ZZZZ=            -94.3663 XXXY=            -15.2765
 XXXZ=              0.6851 YYYX=              3.7967 YYYZ=              0.5815 ZZZX=              0.8817
 ZZZY=              2.5414 XXYY=           -179.2487 XXZZ=           -113.3387 YYZZ=            -56.1794
 XXYZ=             -8.3460 YYXZ=              0.0377 ZZXY=              1.5159
 N-N= 2.796212025274D+02 E-N=-1.560766309572D+03  KE= 4.132828183205D+02
 Entering OneElI...
 OneElI was handed    33497855 working-precision words.
 Calculate electrostatic properties
    NBasis =   109  MinDer = 0  MaxDer = 0
    NGrid  =     9  NMatD  =   1
 Requested accuracy = 0.1000D-12
 PrsmSu:  NPrtUS=   1 ThrOK=F IAlg=1 NPAlg=1 LenDen=           0.
 Prism:   IPart=     0 DynPar=F LinDyn=F Incr=          44.
 PRISM was handed    33442018 working-precision words and   498 shell-pairs
 IPart=  0 NShTot=        4482 NBatch=         498 AvBLen=         9.0
 PrSmSu:  NxtVal=             45.
 --------------------------------------------------------
       Center         ----      EFG at Nuclei      ----
                      3XX-RR        3YY-RR        3ZZ-RR
 --------------------------------------------------------
     1   Atom        0.138587     -0.057587     -0.081000
     2   Atom        0.007800      0.308497     -0.316297
     3   Atom        0.074400      0.287522     -0.361921
     4   Atom        0.825381     -1.072182      0.246801
     5   Atom        0.330166     -0.106938     -0.223229
     6   Atom       -0.168827      0.081298      0.087529
     7   Atom        1.143969     -1.112784     -0.031185
     8   Atom        0.150285      0.081277     -0.231561
     9   Atom        0.152570     -0.292705      0.140135
 --------------------------------------------------------
                        XY            XZ            YZ
 --------------------------------------------------------
     1   Atom        0.001022      0.002524     -0.014890
     2   Atom        0.059477     -0.379233      0.108670
     3   Atom        0.100222      0.338120     -0.162052
     4   Atom       -0.477483     -0.827561      0.147487
     5   Atom        1.086503     -0.294069     -0.668071
     6   Atom       -1.131730      0.336076     -0.695174
     7   Atom        0.089368      0.797222      0.217044
     8   Atom       -0.000408     -0.004908     -0.166004
     9   Atom       -0.022680      0.001740      0.041236
 --------------------------------------------------------


 ---------------------------------------------------------------------------------
              Nuclear Quadrupole in Principal Axis System
 ---------------------------------------------------------------------------------

       Atom             a.u.   MegaHertz   Gauss  10(-4) cm-1        Axes

              Baa    -0.0883   -11.845    -4.226    -3.951 -0.0120  0.4369  0.8994
     1 C(13)  Bbb    -0.0504    -6.757    -2.411    -2.254  0.0010  0.8995 -0.4369
              Bcc     0.1386    18.601     6.637     6.205  0.9999  0.0044  0.0112
 
              Baa    -0.5837   -78.332   -27.951   -26.129  0.5443 -0.1371  0.8276
     2 C(13)  Bbb     0.2567    34.442    12.290    11.489  0.8376  0.1439 -0.5271
              Bcc     0.3271    43.890    15.661    14.640 -0.0469  0.9800  0.1932
 
              Baa    -0.5875   -78.840   -28.132   -26.298 -0.4698  0.2125  0.8568
     3 C(13)  Bbb     0.2572    34.511    12.314    11.512  0.8537 -0.1375  0.5022
              Bcc     0.3303    44.329    15.818    14.787  0.2245  0.9674 -0.1168
 
              Baa    -1.1876    85.935    30.664    28.665  0.2474  0.9680  0.0432
     4 O(17)  Bbb    -0.3132    22.662     8.086     7.559  0.5307 -0.1726  0.8298
              Bcc     1.5008  -108.597   -38.750   -36.224  0.8106 -0.1823 -0.5564
 
              Baa    -1.1440    82.779    29.538    27.612 -0.4889  0.7728  0.4046
     5 O(17)  Bbb    -0.3318    24.009     8.567     8.009  0.5361 -0.0997  0.8383
              Bcc     1.4758  -106.788   -38.105   -35.621  0.6882  0.6267 -0.3655
 
              Baa    -1.2248    88.623    31.623    29.561  0.6878  0.6994  0.1944
     6 O(17)  Bbb    -0.2670    19.323     6.895     6.445 -0.4621  0.2154  0.8603
              Bcc     1.4918  -107.946   -38.518   -36.007 -0.5598  0.6815 -0.4713
 
              Baa    -1.1570    83.720    29.874    27.926  0.0362  0.9762 -0.2138
     7 O(17)  Bbb    -0.4016    29.060    10.369     9.693 -0.4580  0.2063  0.8647
              Bcc     1.5586  -112.780   -40.243   -37.619  0.8882  0.0666  0.4545
 
              Baa    -0.3033  -161.815   -57.740   -53.976  0.0103  0.3963  0.9181
     8 H(1)   Bbb     0.1496    79.818    28.481    26.624  0.9054 -0.3935  0.1597
              Bcc     0.1537    81.998    29.259    27.351  0.4245  0.8295 -0.3629
 
              Baa    -0.2977  -158.864   -56.687   -52.991  0.0504  0.9943 -0.0938
     9 H(1)   Bbb     0.1440    76.838    27.418    25.630  0.0410  0.0918  0.9949
              Bcc     0.1537    82.025    29.269    27.361  0.9979 -0.0540 -0.0361
 

 ---------------------------------------------------------------------------------

 No NMR shielding tensors so no spin-rotation constants.
 Leave Link  601 at Fri Jun 17 15:22:43 2016, MaxMem=   33554432 cpu:       0.2
 Merz-Kollman atomic radii used.
 Atom Element Radius
    1     6    1.50
    2     6    1.50
    3     6    1.50
    4     8    1.40
    5     8    1.40
    6     8    1.40
    7     8    1.40
    8     1    1.20
    9     1    1.20
 Generate VDW surfaces: Layer= 4 Dens= 6 Start= 1.400 Inc= 0.200

 **********************************************************************

            Electrostatic Properties Using The SCF Density

 **********************************************************************

       Atomic Center    1 is at  -0.032622 -0.473155  0.797633
       Atomic Center    2 is at   1.233299 -0.078625  0.042060
       Atomic Center    3 is at  -1.238342  0.048925  0.017535
       Atomic Center    4 is at   1.528673  1.151618  0.058218
       Atomic Center    5 is at   1.844660 -1.030215 -0.512777
       Atomic Center    6 is at  -2.135408 -0.823559 -0.256459
       Atomic Center    7 is at  -1.196171  1.278752 -0.267749
       Atomic Center    8 is at  -0.019050 -0.027568  1.803981
       Atomic Center    9 is at  -0.089000 -1.568070  0.882789
      ESP Fit Center   10 is at  -0.735714 -1.404200  2.543719
      ESP Fit Center   11 is at  -0.351904 -1.595314  2.543719
      ESP Fit Center   12 is at   0.487420 -1.517540  2.543719
      ESP Fit Center   13 is at  -1.457396 -0.891506  2.282557
      ESP Fit Center   14 is at  -1.281819 -1.275965  2.282557
      ESP Fit Center   15 is at   0.939797 -1.595386  2.282557
      ESP Fit Center   16 is at   1.216576 -1.275965  2.282557
      ESP Fit Center   17 is at   1.392153 -0.891506  2.282557
      ESP Fit Center   18 is at  -1.727970 -0.891021  1.964330
      ESP Fit Center   19 is at  -1.578704 -1.284602  1.964330
      ESP Fit Center   20 is at   1.274343 -1.631024  1.964330
      ESP Fit Center   21 is at   1.513461 -1.284602  1.964330
      ESP Fit Center   22 is at   1.662726 -0.891021  1.964330
      ESP Fit Center   23 is at  -1.695051 -1.473405  1.601268
      ESP Fit Center   24 is at   1.511916 -1.647282  1.601268
      ESP Fit Center   25 is at  -0.351904 -1.595314 -0.948453
      ESP Fit Center   26 is at  -0.032622 -1.276790 -1.142514
      ESP Fit Center   27 is at   1.642989 -0.078625  2.101709
      ESP Fit Center   28 is at   2.036935 -0.078625  1.982207
      ESP Fit Center   29 is at   1.929268  0.323193  1.982207
      ESP Fit Center   30 is at   1.635117  0.617344  1.982207
      ESP Fit Center   31 is at   1.929268 -0.480442  1.982207
      ESP Fit Center   32 is at   2.399997 -0.078625  1.788146
      ESP Fit Center   33 is at   2.321212  0.342835  1.788146
      ESP Fit Center   34 is at   1.753341 -1.123009  1.788146
      ESP Fit Center   35 is at   2.095499 -0.864624  1.788146
      ESP Fit Center   36 is at   2.321212 -0.500084  1.788146
      ESP Fit Center   37 is at   2.718224 -0.078625  1.526984
      ESP Fit Center   38 is at   2.658074  0.339727  1.526984
      ESP Fit Center   39 is at   1.850159 -1.429359  1.526984
      ESP Fit Center   40 is at   2.205718 -1.200856  1.526984
      ESP Fit Center   41 is at   2.482497 -0.881435  1.526984
      ESP Fit Center   42 is at   2.658074 -0.496976  1.526984
      ESP Fit Center   43 is at   2.979386 -0.078625  1.208757
      ESP Fit Center   44 is at   2.928647  0.339241  1.208757
      ESP Fit Center   45 is at   2.779382 -0.890071  1.208757
      ESP Fit Center   46 is at   2.928647 -0.496490  1.208757
      ESP Fit Center   47 is at   3.173446 -0.078625  0.845695
      ESP Fit Center   48 is at   3.292948 -0.078625  0.451749
      ESP Fit Center   49 is at  -0.015898 -0.881435 -1.442865
      ESP Fit Center   50 is at   0.530207  0.852420 -1.704027
      ESP Fit Center   51 is at   0.241353  0.535562 -1.704027
      ESP Fit Center   52 is at   0.086467  0.135755 -1.704027
      ESP Fit Center   53 is at   0.086467 -0.293005 -1.704027
      ESP Fit Center   54 is at   0.241353 -0.692812 -1.704027
      ESP Fit Center   55 is at   1.635117  0.617344 -1.898087
      ESP Fit Center   56 is at   1.233299  0.725011 -1.898087
      ESP Fit Center   57 is at   0.831482  0.617344 -1.898087
      ESP Fit Center   58 is at   0.537331  0.323193 -1.898087
      ESP Fit Center   59 is at   0.429664 -0.078625 -1.898087
      ESP Fit Center   60 is at   0.537331 -0.480442 -1.898087
      ESP Fit Center   61 is at   1.438144  0.276177 -2.017590
      ESP Fit Center   62 is at   1.028455  0.276177 -2.017590
      ESP Fit Center   63 is at   0.823610 -0.078625 -2.017590
      ESP Fit Center   64 is at  -1.640160  0.744893  1.957682
      ESP Fit Center   65 is at  -1.934311  0.450742  1.957682
      ESP Fit Center   66 is at  -2.041977  0.048925  1.957682
      ESP Fit Center   67 is at  -1.934311 -0.352893  1.957682
      ESP Fit Center   68 is at  -1.557624  1.171084  1.763621
      ESP Fit Center   69 is at  -1.941434  0.979969  1.763621
      ESP Fit Center   70 is at  -2.230288  0.663112  1.763621
      ESP Fit Center   71 is at  -2.385174  0.263305  1.763621
      ESP Fit Center   72 is at  -2.385174 -0.165455  1.763621
      ESP Fit Center   73 is at  -2.230288 -0.565262  1.763621
      ESP Fit Center   74 is at  -1.941434 -0.882120  1.763621
      ESP Fit Center   75 is at  -2.210761  1.171156  1.502459
      ESP Fit Center   76 is at  -2.487540  0.851735  1.502459
      ESP Fit Center   77 is at  -2.663116  0.467276  1.502459
      ESP Fit Center   78 is at  -2.723266  0.048925  1.502459
      ESP Fit Center   79 is at  -2.545306  1.206794  1.184233
      ESP Fit Center   80 is at  -2.784425  0.860371  1.184233
      ESP Fit Center   81 is at  -2.933690  0.466791  1.184233
      ESP Fit Center   82 is at  -2.900771  1.049175  0.821170
      ESP Fit Center   83 is at  -3.076929  0.668417  0.821170
      ESP Fit Center   84 is at  -3.039189  1.048476  0.427225
      ESP Fit Center   85 is at  -3.178489  0.852560  0.017535
      ESP Fit Center   86 is at  -0.246452 -1.388076 -1.149162
      ESP Fit Center   87 is at  -0.621482 -1.301810 -1.467389
      ESP Fit Center   88 is at  -0.265924 -1.073306 -1.467389
      ESP Fit Center   89 is at  -0.071645  0.048925 -1.728551
      ESP Fit Center   90 is at  -0.150429  0.470384 -1.728551
      ESP Fit Center   91 is at  -0.718300 -0.995460 -1.728551
      ESP Fit Center   92 is at  -0.376142 -0.737074 -1.728551
      ESP Fit Center   93 is at  -0.150429 -0.372535 -1.728551
      ESP Fit Center   94 is at  -0.434707  0.048925 -1.922612
      ESP Fit Center   95 is at  -0.542374  0.450742 -1.922612
      ESP Fit Center   96 is at  -1.934311  0.450742 -1.922612
      ESP Fit Center   97 is at  -0.836524 -0.647044 -1.922612
      ESP Fit Center   98 is at  -0.542374 -0.352893 -1.922612
      ESP Fit Center   99 is at  -0.828652  0.048925 -2.042114
      ESP Fit Center  100 is at  -1.033497  0.403726 -2.042114
      ESP Fit Center  101 is at  -1.443187  0.403726 -2.042114
      ESP Fit Center  102 is at  -1.648032  0.048925 -2.042114
      ESP Fit Center  103 is at  -1.443187 -0.305877 -2.042114
      ESP Fit Center  104 is at  -1.033497 -0.305877 -2.042114
      ESP Fit Center  105 is at  -1.238342  0.048925 -2.082465
      ESP Fit Center  106 is at   1.528673  1.151618  2.018218
      ESP Fit Center  107 is at   1.936180  1.151618  1.975387
      ESP Fit Center  108 is at   1.732427  1.504529  1.975387
      ESP Fit Center  109 is at   1.324920  1.504529  1.975387
      ESP Fit Center  110 is at   1.732427  0.798706  1.975387
      ESP Fit Center  111 is at   2.325877  1.151618  1.848767
      ESP Fit Center  112 is at   2.219072  1.550220  1.848767
      ESP Fit Center  113 is at   1.927275  1.842016  1.848767
      ESP Fit Center  114 is at   1.528673  1.948821  1.848767
      ESP Fit Center  115 is at   1.130071  1.842016  1.848767
      ESP Fit Center  116 is at   0.838275  1.550220  1.848767
      ESP Fit Center  117 is at   2.219072  0.753016  1.848767
      ESP Fit Center  118 is at   2.680732  1.151618  1.643891
      ESP Fit Center  119 is at   2.602936  1.567789  1.643891
      ESP Fit Center  120 is at   2.380055  1.927755  1.643891
      ESP Fit Center  121 is at   2.042190  2.182899  1.643891
      ESP Fit Center  122 is at   1.634972  2.298762  1.643891
      ESP Fit Center  123 is at   1.213397  2.259698  1.643891
      ESP Fit Center  124 is at   0.834403  2.070981  1.643891
      ESP Fit Center  125 is at   0.549173  1.758099  1.643891
      ESP Fit Center  126 is at   2.602936  0.735446  1.643891
      ESP Fit Center  127 is at   2.985237  1.151618  1.369714
      ESP Fit Center  128 is at   2.926236  1.561979  1.369714
      ESP Fit Center  129 is at   2.754013  1.939096  1.369714
      ESP Fit Center  130 is at   2.482520  2.252415  1.369714
      ESP Fit Center  131 is at   2.133752  2.476555  1.369714
      ESP Fit Center  132 is at   1.735964  2.593356  1.369714
      ESP Fit Center  133 is at   1.321383  2.593356  1.369714
      ESP Fit Center  134 is at   0.923595  2.476555  1.369714
      ESP Fit Center  135 is at   0.574827  2.252415  1.369714
      ESP Fit Center  136 is at   0.303334  1.939096  1.369714
      ESP Fit Center  137 is at   2.926236  0.741256  1.369714
      ESP Fit Center  138 is at   3.226083  1.151618  1.038218
      ESP Fit Center  139 is at   3.172756  1.573746  1.038218
      ESP Fit Center  140 is at   3.016125  1.969351  1.038218
      ESP Fit Center  141 is at   2.766032  2.313575  1.038218
      ESP Fit Center  142 is at   2.438191  2.584788  1.038218
      ESP Fit Center  143 is at   2.053202  2.765950  1.038218
      ESP Fit Center  144 is at   1.635255  2.845678  1.038218
      ESP Fit Center  145 is at   1.210610  2.818962  1.038218
      ESP Fit Center  146 is at   0.805951  2.687480  1.038218
      ESP Fit Center  147 is at   0.446704  2.459494  1.038218
      ESP Fit Center  148 is at   0.155440  2.149330  1.038218
      ESP Fit Center  149 is at   3.172756  0.729489  1.038218
      ESP Fit Center  150 is at   3.392744  1.151618  0.663891
      ESP Fit Center  151 is at   3.346008  1.566412  0.663891
      ESP Fit Center  152 is at   3.208143  1.960408  0.663891
      ESP Fit Center  153 is at   2.986063  2.313847  0.663891
      ESP Fit Center  154 is at   2.690902  2.609007  0.663891
      ESP Fit Center  155 is at   2.337463  2.831087  0.663891
      ESP Fit Center  156 is at   1.943468  2.968952  0.663891
      ESP Fit Center  157 is at   1.528673  3.015688  0.663891
      ESP Fit Center  158 is at   1.113879  2.968952  0.663891
      ESP Fit Center  159 is at   0.719883  2.831087  0.663891
      ESP Fit Center  160 is at   0.366444  2.609007  0.663891
      ESP Fit Center  161 is at   3.208143  0.342828  0.663891
      ESP Fit Center  162 is at   3.346008  0.736823  0.663891
      ESP Fit Center  163 is at   3.477936  1.151618  0.263094
      ESP Fit Center  164 is at   3.432364  1.570652  0.263094
      ESP Fit Center  165 is at   3.297776  1.970092  0.263094
      ESP Fit Center  166 is at   3.080468  2.331261  0.263094
      ESP Fit Center  167 is at   2.790599  2.637272  0.263094
      ESP Fit Center  168 is at   2.441725  2.873815  0.263094
      ESP Fit Center  169 is at   2.050156  3.029830  0.263094
      ESP Fit Center  170 is at   1.634204  3.098022  0.263094
      ESP Fit Center  171 is at   1.213318  3.075202  0.263094
      ESP Fit Center  172 is at   0.807177  2.962438  0.263094
      ESP Fit Center  173 is at   0.434772  2.765001  0.263094
      ESP Fit Center  174 is at   3.297776  0.333143  0.263094
      ESP Fit Center  175 is at   3.432364  0.732584  0.263094
      ESP Fit Center  176 is at   3.477936  1.151618 -0.146658
      ESP Fit Center  177 is at   3.432364  1.570652 -0.146658
      ESP Fit Center  178 is at   3.297776  1.970092 -0.146658
      ESP Fit Center  179 is at   3.080468  2.331261 -0.146658
      ESP Fit Center  180 is at   2.790599  2.637272 -0.146658
      ESP Fit Center  181 is at   2.441725  2.873815 -0.146658
      ESP Fit Center  182 is at   2.050156  3.029830 -0.146658
      ESP Fit Center  183 is at   1.634204  3.098022 -0.146658
      ESP Fit Center  184 is at   1.213318  3.075202 -0.146658
      ESP Fit Center  185 is at   0.807177  2.962438 -0.146658
      ESP Fit Center  186 is at   0.434772  2.765001 -0.146658
      ESP Fit Center  187 is at   3.297776  0.333143 -0.146658
      ESP Fit Center  188 is at   3.432364  0.732584 -0.146658
      ESP Fit Center  189 is at   3.392744  1.151618 -0.547455
      ESP Fit Center  190 is at   3.346008  1.566412 -0.547455
      ESP Fit Center  191 is at   3.208143  1.960408 -0.547455
      ESP Fit Center  192 is at   2.986063  2.313847 -0.547455
      ESP Fit Center  193 is at   2.690902  2.609007 -0.547455
      ESP Fit Center  194 is at   2.337463  2.831087 -0.547455
      ESP Fit Center  195 is at   1.943468  2.968952 -0.547455
      ESP Fit Center  196 is at   1.528673  3.015688 -0.547455
      ESP Fit Center  197 is at   1.113879  2.968952 -0.547455
      ESP Fit Center  198 is at   0.719883  2.831087 -0.547455
      ESP Fit Center  199 is at   0.366444  2.609007 -0.547455
      ESP Fit Center  200 is at   3.346008  0.736823 -0.547455
      ESP Fit Center  201 is at   3.226083  1.151618 -0.921782
      ESP Fit Center  202 is at   3.172756  1.573746 -0.921782
      ESP Fit Center  203 is at   3.016125  1.969351 -0.921782
      ESP Fit Center  204 is at   2.766032  2.313575 -0.921782
      ESP Fit Center  205 is at   2.438191  2.584788 -0.921782
      ESP Fit Center  206 is at   2.053202  2.765950 -0.921782
      ESP Fit Center  207 is at   1.635255  2.845678 -0.921782
      ESP Fit Center  208 is at   1.210610  2.818962 -0.921782
      ESP Fit Center  209 is at   0.805951  2.687480 -0.921782
      ESP Fit Center  210 is at   0.446704  2.459494 -0.921782
      ESP Fit Center  211 is at   3.172756  0.729489 -0.921782
      ESP Fit Center  212 is at   2.985237  1.151618 -1.253278
      ESP Fit Center  213 is at   2.926236  1.561979 -1.253278
      ESP Fit Center  214 is at   2.754013  1.939096 -1.253278
      ESP Fit Center  215 is at   2.482520  2.252415 -1.253278
      ESP Fit Center  216 is at   2.133752  2.476555 -1.253278
      ESP Fit Center  217 is at   1.735964  2.593356 -1.253278
      ESP Fit Center  218 is at   1.321383  2.593356 -1.253278
      ESP Fit Center  219 is at   0.923595  2.476555 -1.253278
      ESP Fit Center  220 is at   0.574827  2.252415 -1.253278
      ESP Fit Center  221 is at   2.926236  0.741256 -1.253278
      ESP Fit Center  222 is at   2.680732  1.151618 -1.527455
      ESP Fit Center  223 is at   2.602936  1.567789 -1.527455
      ESP Fit Center  224 is at   2.380055  1.927755 -1.527455
      ESP Fit Center  225 is at   2.042190  2.182899 -1.527455
      ESP Fit Center  226 is at   1.634972  2.298762 -1.527455
      ESP Fit Center  227 is at   1.213397  2.259698 -1.527455
      ESP Fit Center  228 is at   0.834403  2.070981 -1.527455
      ESP Fit Center  229 is at   0.549173  1.758099 -1.527455
      ESP Fit Center  230 is at   0.396230  1.363308 -1.527455
      ESP Fit Center  231 is at   2.602936  0.735446 -1.527455
      ESP Fit Center  232 is at   2.325877  1.151618 -1.732331
      ESP Fit Center  233 is at   2.219072  1.550220 -1.732331
      ESP Fit Center  234 is at   1.927275  1.842016 -1.732331
      ESP Fit Center  235 is at   1.528673  1.948821 -1.732331
      ESP Fit Center  236 is at   1.130071  1.842016 -1.732331
      ESP Fit Center  237 is at   0.838275  1.550220 -1.732331
      ESP Fit Center  238 is at   0.731469  1.151618 -1.732331
      ESP Fit Center  239 is at   2.219072  0.753016 -1.732331
      ESP Fit Center  240 is at   1.936180  1.151618 -1.858951
      ESP Fit Center  241 is at   1.732427  1.504529 -1.858951
      ESP Fit Center  242 is at   1.324920  1.504529 -1.858951
      ESP Fit Center  243 is at   1.121166  1.151618 -1.858951
      ESP Fit Center  244 is at   1.732427  0.798706 -1.858951
      ESP Fit Center  245 is at   1.528673  1.151618 -1.901782
      ESP Fit Center  246 is at   2.641864 -1.030215  1.277772
      ESP Fit Center  247 is at   1.844660 -1.827419  1.277772
      ESP Fit Center  248 is at   2.243262 -1.720614  1.277772
      ESP Fit Center  249 is at   2.535059 -1.428817  1.277772
      ESP Fit Center  250 is at   2.996719 -1.030215  1.072896
      ESP Fit Center  251 is at   1.529384 -2.138295  1.072896
      ESP Fit Center  252 is at   1.950959 -2.177360  1.072896
      ESP Fit Center  253 is at   2.358177 -2.061496  1.072896
      ESP Fit Center  254 is at   2.696042 -1.806352  1.072896
      ESP Fit Center  255 is at   2.918923 -1.446387  1.072896
      ESP Fit Center  256 is at   3.301224 -1.030215  0.798719
      ESP Fit Center  257 is at   3.242223 -0.619854  0.798719
      ESP Fit Center  258 is at   1.637369 -2.471953  0.798719
      ESP Fit Center  259 is at   2.051951 -2.471953  0.798719
      ESP Fit Center  260 is at   2.449739 -2.355152  0.798719
      ESP Fit Center  261 is at   2.798506 -2.131013  0.798719
      ESP Fit Center  262 is at   3.069999 -1.817693  0.798719
      ESP Fit Center  263 is at   3.242223 -1.440577  0.798719
      ESP Fit Center  264 is at   3.542070 -1.030215  0.467223
      ESP Fit Center  265 is at   3.488743 -0.608086  0.467223
      ESP Fit Center  266 is at   3.332112 -0.212482  0.467223
      ESP Fit Center  267 is at   1.526597 -2.697559  0.467223
      ESP Fit Center  268 is at   1.951241 -2.724275  0.467223
      ESP Fit Center  269 is at   2.369188 -2.644548  0.467223
      ESP Fit Center  270 is at   2.754178 -2.463386  0.467223
      ESP Fit Center  271 is at   3.082018 -2.192172  0.467223
      ESP Fit Center  272 is at   3.332112 -1.847948  0.467223
      ESP Fit Center  273 is at   3.488743 -1.452344  0.467223
      ESP Fit Center  274 is at   3.708731 -1.030215  0.092896
      ESP Fit Center  275 is at   3.661995 -0.615420  0.092896
      ESP Fit Center  276 is at   3.524130 -0.221425  0.092896
      ESP Fit Center  277 is at   1.035870 -2.709685  0.092896
      ESP Fit Center  278 is at   1.429865 -2.847550  0.092896
      ESP Fit Center  279 is at   1.844660 -2.894286  0.092896
      ESP Fit Center  280 is at   2.259455 -2.847550  0.092896
      ESP Fit Center  281 is at   2.653450 -2.709685  0.092896
      ESP Fit Center  282 is at   3.006889 -2.487604  0.092896
      ESP Fit Center  283 is at   3.302049 -2.192444  0.092896
      ESP Fit Center  284 is at   3.524130 -1.839005  0.092896
      ESP Fit Center  285 is at   3.661995 -1.445010  0.092896
      ESP Fit Center  286 is at   3.793923 -1.030215 -0.307901
      ESP Fit Center  287 is at   3.748350 -0.611181 -0.307901
      ESP Fit Center  288 is at   3.613763 -0.211741 -0.307901
      ESP Fit Center  289 is at   3.396455  0.149429 -0.307901
      ESP Fit Center  290 is at   0.750759 -2.643599 -0.307901
      ESP Fit Center  291 is at   1.123163 -2.841035 -0.307901
      ESP Fit Center  292 is at   1.529304 -2.953799 -0.307901
      ESP Fit Center  293 is at   1.950191 -2.976619 -0.307901
      ESP Fit Center  294 is at   2.366143 -2.908427 -0.307901
      ESP Fit Center  295 is at   2.757711 -2.752412 -0.307901
      ESP Fit Center  296 is at   3.106586 -2.515869 -0.307901
      ESP Fit Center  297 is at   3.396455 -2.209859 -0.307901
      ESP Fit Center  298 is at   3.613763 -1.848689 -0.307901
      ESP Fit Center  299 is at   3.748350 -1.449249 -0.307901
      ESP Fit Center  300 is at   3.793923 -1.030215 -0.717653
      ESP Fit Center  301 is at   3.748350 -0.611181 -0.717653
      ESP Fit Center  302 is at   3.613763 -0.211741 -0.717653
      ESP Fit Center  303 is at   3.396455  0.149429 -0.717653
      ESP Fit Center  304 is at   0.174420 -2.035165 -0.717653
      ESP Fit Center  305 is at   0.429504 -2.370722 -0.717653
      ESP Fit Center  306 is at   0.750759 -2.643599 -0.717653
      ESP Fit Center  307 is at   1.123163 -2.841035 -0.717653
      ESP Fit Center  308 is at   1.529304 -2.953799 -0.717653
      ESP Fit Center  309 is at   1.950191 -2.976619 -0.717653
      ESP Fit Center  310 is at   2.366143 -2.908427 -0.717653
      ESP Fit Center  311 is at   2.757711 -2.752412 -0.717653
      ESP Fit Center  312 is at   3.106586 -2.515869 -0.717653
      ESP Fit Center  313 is at   3.396455 -2.209859 -0.717653
      ESP Fit Center  314 is at   3.613763 -1.848689 -0.717653
      ESP Fit Center  315 is at   3.748350 -1.449249 -0.717653
      ESP Fit Center  316 is at   3.708731 -1.030215 -1.118451
      ESP Fit Center  317 is at   3.661995 -0.615420 -1.118451
      ESP Fit Center  318 is at   3.524130 -0.221425 -1.118451
      ESP Fit Center  319 is at   3.302049  0.132014 -1.118451
      ESP Fit Center  320 is at   3.006889  0.427174 -1.118451
      ESP Fit Center  321 is at   0.027325 -1.445010 -1.118451
      ESP Fit Center  322 is at   0.165190 -1.839005 -1.118451
      ESP Fit Center  323 is at   0.387271 -2.192444 -1.118451
      ESP Fit Center  324 is at   0.682431 -2.487604 -1.118451
      ESP Fit Center  325 is at   1.035870 -2.709685 -1.118451
      ESP Fit Center  326 is at   1.429865 -2.847550 -1.118451
      ESP Fit Center  327 is at   1.844660 -2.894286 -1.118451
      ESP Fit Center  328 is at   2.259455 -2.847550 -1.118451
      ESP Fit Center  329 is at   2.653450 -2.709685 -1.118451
      ESP Fit Center  330 is at   3.006889 -2.487604 -1.118451
      ESP Fit Center  331 is at   3.302049 -2.192444 -1.118451
      ESP Fit Center  332 is at   3.524130 -1.839005 -1.118451
      ESP Fit Center  333 is at   3.661995 -1.445010 -1.118451
      ESP Fit Center  334 is at   3.542070 -1.030215 -1.492777
      ESP Fit Center  335 is at   3.488743 -0.608086 -1.492777
      ESP Fit Center  336 is at   3.332112 -0.212482 -1.492777
      ESP Fit Center  337 is at   3.082018  0.131742 -1.492777
      ESP Fit Center  338 is at   2.754178  0.402955 -1.492777
      ESP Fit Center  339 is at   0.160635 -1.242957 -1.492777
      ESP Fit Center  340 is at   0.266448 -1.655073 -1.492777
      ESP Fit Center  341 is at   0.471427 -2.027928 -1.492777
      ESP Fit Center  342 is at   0.762690 -2.338092 -1.492777
      ESP Fit Center  343 is at   1.121938 -2.566077 -1.492777
      ESP Fit Center  344 is at   1.526597 -2.697559 -1.492777
      ESP Fit Center  345 is at   1.951241 -2.724275 -1.492777
      ESP Fit Center  346 is at   2.369188 -2.644548 -1.492777
      ESP Fit Center  347 is at   2.754178 -2.463386 -1.492777
      ESP Fit Center  348 is at   3.082018 -2.192172 -1.492777
      ESP Fit Center  349 is at   3.332112 -1.847948 -1.492777
      ESP Fit Center  350 is at   3.488743 -1.452344 -1.492777
      ESP Fit Center  351 is at   3.301224 -1.030215 -1.824273
      ESP Fit Center  352 is at   3.242223 -0.619854 -1.824273
      ESP Fit Center  353 is at   3.069999 -0.242737 -1.824273
      ESP Fit Center  354 is at   2.798506  0.070582 -1.824273
      ESP Fit Center  355 is at   2.449739  0.294722 -1.824273
      ESP Fit Center  356 is at   0.388096 -1.030215 -1.824273
      ESP Fit Center  357 is at   0.447097 -1.440577 -1.824273
      ESP Fit Center  358 is at   0.619321 -1.817693 -1.824273
      ESP Fit Center  359 is at   0.890814 -2.131013 -1.824273
      ESP Fit Center  360 is at   1.239582 -2.355152 -1.824273
      ESP Fit Center  361 is at   1.637369 -2.471953 -1.824273
      ESP Fit Center  362 is at   2.051951 -2.471953 -1.824273
      ESP Fit Center  363 is at   2.449739 -2.355152 -1.824273
      ESP Fit Center  364 is at   2.798506 -2.131013 -1.824273
      ESP Fit Center  365 is at   3.069999 -1.817693 -1.824273
      ESP Fit Center  366 is at   3.242223 -1.440577 -1.824273
      ESP Fit Center  367 is at   2.996719 -1.030215 -2.098451
      ESP Fit Center  368 is at   2.918923 -0.614043 -2.098451
      ESP Fit Center  369 is at   2.696042 -0.254078 -2.098451
      ESP Fit Center  370 is at   2.358177  0.001066 -2.098451
      ESP Fit Center  371 is at   1.950959  0.116930 -2.098451
      ESP Fit Center  372 is at   1.529384  0.077865 -2.098451
      ESP Fit Center  373 is at   1.150389 -0.110852 -2.098451
      ESP Fit Center  374 is at   0.865160 -0.423734 -2.098451
      ESP Fit Center  375 is at   0.712217 -0.818525 -2.098451
      ESP Fit Center  376 is at   0.712217 -1.241905 -2.098451
      ESP Fit Center  377 is at   0.865160 -1.636696 -2.098451
      ESP Fit Center  378 is at   1.150389 -1.949578 -2.098451
      ESP Fit Center  379 is at   1.529384 -2.138295 -2.098451
      ESP Fit Center  380 is at   1.950959 -2.177360 -2.098451
      ESP Fit Center  381 is at   2.358177 -2.061496 -2.098451
      ESP Fit Center  382 is at   2.696042 -1.806352 -2.098451
      ESP Fit Center  383 is at   2.918923 -1.446387 -2.098451
      ESP Fit Center  384 is at   2.641864 -1.030215 -2.303326
      ESP Fit Center  385 is at   2.535059 -0.631613 -2.303326
      ESP Fit Center  386 is at   2.243262 -0.339816 -2.303326
      ESP Fit Center  387 is at   1.844660 -0.233011 -2.303326
      ESP Fit Center  388 is at   1.446058 -0.339816 -2.303326
      ESP Fit Center  389 is at   1.154261 -0.631613 -2.303326
      ESP Fit Center  390 is at   1.047456 -1.030215 -2.303326
      ESP Fit Center  391 is at   1.154261 -1.428817 -2.303326
      ESP Fit Center  392 is at   1.446058 -1.720614 -2.303326
      ESP Fit Center  393 is at   1.844660 -1.827419 -2.303326
      ESP Fit Center  394 is at   2.243262 -1.720614 -2.303326
      ESP Fit Center  395 is at   2.535059 -1.428817 -2.303326
      ESP Fit Center  396 is at   2.252167 -1.030215 -2.429947
      ESP Fit Center  397 is at   2.048413 -0.677304 -2.429947
      ESP Fit Center  398 is at   1.640907 -0.677304 -2.429947
      ESP Fit Center  399 is at   1.437153 -1.030215 -2.429947
      ESP Fit Center  400 is at   1.640907 -1.383126 -2.429947
      ESP Fit Center  401 is at   2.048413 -1.383126 -2.429947
      ESP Fit Center  402 is at   1.844660 -1.030215 -2.472777
      ESP Fit Center  403 is at  -2.542915 -0.823559  1.660710
      ESP Fit Center  404 is at  -2.339161 -1.176470  1.660710
      ESP Fit Center  405 is at  -1.931654 -1.176470  1.660710
      ESP Fit Center  406 is at  -2.825807 -0.424957  1.534090
      ESP Fit Center  407 is at  -2.932612 -0.823559  1.534090
      ESP Fit Center  408 is at  -2.825807 -1.222160  1.534090
      ESP Fit Center  409 is at  -2.534010 -1.513957  1.534090
      ESP Fit Center  410 is at  -2.135408 -1.620762  1.534090
      ESP Fit Center  411 is at  -1.736806 -1.513957  1.534090
      ESP Fit Center  412 is at  -3.114908 -0.217078  1.329214
      ESP Fit Center  413 is at  -3.267851 -0.611868  1.329214
      ESP Fit Center  414 is at  -3.267851 -1.035249  1.329214
      ESP Fit Center  415 is at  -3.114908 -1.430040  1.329214
      ESP Fit Center  416 is at  -2.829679 -1.742922  1.329214
      ESP Fit Center  417 is at  -2.450684 -1.931639  1.329214
      ESP Fit Center  418 is at  -2.029109 -1.970703  1.329214
      ESP Fit Center  419 is at  -3.089254  0.277239  1.055037
      ESP Fit Center  420 is at  -3.360747 -0.036081  1.055037
      ESP Fit Center  421 is at  -3.532971 -0.413197  1.055037
      ESP Fit Center  422 is at  -3.591972 -0.823559  1.055037
      ESP Fit Center  423 is at  -3.532971 -1.233920  1.055037
      ESP Fit Center  424 is at  -3.360747 -1.611036  1.055037
      ESP Fit Center  425 is at  -3.089254 -1.924356  1.055037
      ESP Fit Center  426 is at  -2.740486 -2.148496  1.055037
      ESP Fit Center  427 is at  -2.342699 -2.265297  1.055037
      ESP Fit Center  428 is at  -1.928117 -2.265297  1.055037
      ESP Fit Center  429 is at  -3.217378  0.484318  0.723541
      ESP Fit Center  430 is at  -3.508641  0.174154  0.723541
      ESP Fit Center  431 is at  -3.713620 -0.198700  0.723541
      ESP Fit Center  432 is at  -3.819433 -0.610817  0.723541
      ESP Fit Center  433 is at  -3.819433 -1.036300  0.723541
      ESP Fit Center  434 is at  -3.713620 -1.448417  0.723541
      ESP Fit Center  435 is at  -3.508641 -1.821271  0.723541
      ESP Fit Center  436 is at  -3.217378 -2.131435  0.723541
      ESP Fit Center  437 is at  -2.858130 -2.359421  0.723541
      ESP Fit Center  438 is at  -2.453471 -2.490903  0.723541
      ESP Fit Center  439 is at  -2.028827 -2.517619  0.723541
      ESP Fit Center  440 is at  -1.610879 -2.437891  0.723541
      ESP Fit Center  441 is at  -3.297637  0.633831  0.349214
      ESP Fit Center  442 is at  -3.592797  0.338671  0.349214
      ESP Fit Center  443 is at  -3.814878 -0.014769  0.349214
      ESP Fit Center  444 is at  -3.952743 -0.408764  0.349214
      ESP Fit Center  445 is at  -3.999479 -0.823559  0.349214
      ESP Fit Center  446 is at  -3.952743 -1.238353  0.349214
      ESP Fit Center  447 is at  -3.814878 -1.632349  0.349214
      ESP Fit Center  448 is at  -3.592797 -1.985788  0.349214
      ESP Fit Center  449 is at  -3.297637 -2.280948  0.349214
      ESP Fit Center  450 is at  -2.944198 -2.503028  0.349214
      ESP Fit Center  451 is at  -2.550203 -2.640893  0.349214
      ESP Fit Center  452 is at  -2.135408 -2.687629  0.349214
      ESP Fit Center  453 is at  -1.720613 -2.640893  0.349214
      ESP Fit Center  454 is at  -3.229309  0.789825 -0.051583
      ESP Fit Center  455 is at  -3.550564  0.516948 -0.051583
      ESP Fit Center  456 is at  -3.805648  0.181391 -0.051583
      ESP Fit Center  457 is at  -3.982633 -0.201156 -0.051583
      ESP Fit Center  458 is at  -4.073244 -0.612806 -0.051583
      ESP Fit Center  459 is at  -4.073244 -1.034311 -0.051583
      ESP Fit Center  460 is at  -3.982633 -1.445961 -0.051583
      ESP Fit Center  461 is at  -3.805648 -1.828509 -0.051583
      ESP Fit Center  462 is at  -3.550564 -2.164066 -0.051583
      ESP Fit Center  463 is at  -3.229309 -2.436942 -0.051583
      ESP Fit Center  464 is at  -2.856905 -2.634378 -0.051583
      ESP Fit Center  465 is at  -2.450764 -2.747143 -0.051583
      ESP Fit Center  466 is at  -2.029877 -2.769963 -0.051583
      ESP Fit Center  467 is at  -1.613925 -2.701771 -0.051583
      ESP Fit Center  468 is at  -1.222357 -2.545756 -0.051583
      ESP Fit Center  469 is at  -3.229309  0.789825 -0.461335
      ESP Fit Center  470 is at  -3.550564  0.516948 -0.461335
      ESP Fit Center  471 is at  -3.805648  0.181391 -0.461335
      ESP Fit Center  472 is at  -3.982633 -0.201156 -0.461335
      ESP Fit Center  473 is at  -4.073244 -0.612806 -0.461335
      ESP Fit Center  474 is at  -4.073244 -1.034311 -0.461335
      ESP Fit Center  475 is at  -3.982633 -1.445961 -0.461335
      ESP Fit Center  476 is at  -3.805648 -1.828509 -0.461335
      ESP Fit Center  477 is at  -3.550564 -2.164066 -0.461335
      ESP Fit Center  478 is at  -3.229309 -2.436942 -0.461335
      ESP Fit Center  479 is at  -2.856905 -2.634378 -0.461335
      ESP Fit Center  480 is at  -2.450764 -2.747143 -0.461335
      ESP Fit Center  481 is at  -2.029877 -2.769963 -0.461335
      ESP Fit Center  482 is at  -1.613925 -2.701771 -0.461335
      ESP Fit Center  483 is at  -1.222357 -2.545756 -0.461335
      ESP Fit Center  484 is at  -0.873482 -2.309213 -0.461335
      ESP Fit Center  485 is at  -3.297637  0.633831 -0.862132
      ESP Fit Center  486 is at  -3.592797  0.338671 -0.862132
      ESP Fit Center  487 is at  -3.814878 -0.014769 -0.862132
      ESP Fit Center  488 is at  -3.952743 -0.408764 -0.862132
      ESP Fit Center  489 is at  -3.999479 -0.823559 -0.862132
      ESP Fit Center  490 is at  -3.952743 -1.238353 -0.862132
      ESP Fit Center  491 is at  -3.814878 -1.632349 -0.862132
      ESP Fit Center  492 is at  -3.592797 -1.985788 -0.862132
      ESP Fit Center  493 is at  -3.297637 -2.280948 -0.862132
      ESP Fit Center  494 is at  -2.944198 -2.503028 -0.862132
      ESP Fit Center  495 is at  -2.550203 -2.640893 -0.862132
      ESP Fit Center  496 is at  -2.135408 -2.687629 -0.862132
      ESP Fit Center  497 is at  -1.720613 -2.640893 -0.862132
      ESP Fit Center  498 is at  -1.326618 -2.503028 -0.862132
      ESP Fit Center  499 is at  -0.973179 -2.280948 -0.862132
      ESP Fit Center  500 is at  -0.678019 -1.985788 -0.862132
      ESP Fit Center  501 is at  -2.858130  0.712304 -1.236459
      ESP Fit Center  502 is at  -3.217378  0.484318 -1.236459
      ESP Fit Center  503 is at  -3.508641  0.174154 -1.236459
      ESP Fit Center  504 is at  -3.713620 -0.198700 -1.236459
      ESP Fit Center  505 is at  -3.819433 -0.610817 -1.236459
      ESP Fit Center  506 is at  -3.819433 -1.036300 -1.236459
      ESP Fit Center  507 is at  -3.713620 -1.448417 -1.236459
      ESP Fit Center  508 is at  -3.508641 -1.821271 -1.236459
      ESP Fit Center  509 is at  -3.217378 -2.131435 -1.236459
      ESP Fit Center  510 is at  -2.858130 -2.359421 -1.236459
      ESP Fit Center  511 is at  -2.453471 -2.490903 -1.236459
      ESP Fit Center  512 is at  -2.028827 -2.517619 -1.236459
      ESP Fit Center  513 is at  -1.610879 -2.437891 -1.236459
      ESP Fit Center  514 is at  -1.225890 -2.256729 -1.236459
      ESP Fit Center  515 is at  -0.898049 -1.985516 -1.236459
      ESP Fit Center  516 is at  -0.647956 -1.641292 -1.236459
      ESP Fit Center  517 is at  -2.740486  0.501379 -1.567955
      ESP Fit Center  518 is at  -3.089254  0.277239 -1.567955
      ESP Fit Center  519 is at  -3.360747 -0.036081 -1.567955
      ESP Fit Center  520 is at  -3.532971 -0.413197 -1.567955
      ESP Fit Center  521 is at  -3.591972 -0.823559 -1.567955
      ESP Fit Center  522 is at  -3.532971 -1.233920 -1.567955
      ESP Fit Center  523 is at  -3.360747 -1.611036 -1.567955
      ESP Fit Center  524 is at  -3.089254 -1.924356 -1.567955
      ESP Fit Center  525 is at  -2.740486 -2.148496 -1.567955
      ESP Fit Center  526 is at  -2.342699 -2.265297 -1.567955
      ESP Fit Center  527 is at  -1.928117 -2.265297 -1.567955
      ESP Fit Center  528 is at  -1.530329 -2.148496 -1.567955
      ESP Fit Center  529 is at  -1.181561 -1.924356 -1.567955
      ESP Fit Center  530 is at  -0.910068 -1.611036 -1.567955
      ESP Fit Center  531 is at  -2.450684  0.284521 -1.842132
      ESP Fit Center  532 is at  -2.829679  0.095804 -1.842132
      ESP Fit Center  533 is at  -3.114908 -0.217078 -1.842132
      ESP Fit Center  534 is at  -3.267851 -0.611868 -1.842132
      ESP Fit Center  535 is at  -3.267851 -1.035249 -1.842132
      ESP Fit Center  536 is at  -3.114908 -1.430040 -1.842132
      ESP Fit Center  537 is at  -2.829679 -1.742922 -1.842132
      ESP Fit Center  538 is at  -2.450684 -1.931639 -1.842132
      ESP Fit Center  539 is at  -2.029109 -1.970703 -1.842132
      ESP Fit Center  540 is at  -1.621891 -1.854840 -1.842132
      ESP Fit Center  541 is at  -1.284026 -1.599696 -1.842132
      ESP Fit Center  542 is at  -1.061145 -1.239730 -1.842132
      ESP Fit Center  543 is at  -1.338204 -0.823559 -2.047008
      ESP Fit Center  544 is at  -1.445009 -0.424957 -2.047008
      ESP Fit Center  545 is at  -1.736806 -0.133160 -2.047008
      ESP Fit Center  546 is at  -2.135408 -0.026355 -2.047008
      ESP Fit Center  547 is at  -2.534010 -0.133160 -2.047008
      ESP Fit Center  548 is at  -2.825807 -0.424957 -2.047008
      ESP Fit Center  549 is at  -2.932612 -0.823559 -2.047008
      ESP Fit Center  550 is at  -2.825807 -1.222160 -2.047008
      ESP Fit Center  551 is at  -2.534010 -1.513957 -2.047008
      ESP Fit Center  552 is at  -2.135408 -1.620762 -2.047008
      ESP Fit Center  553 is at  -1.736806 -1.513957 -2.047008
      ESP Fit Center  554 is at  -1.445009 -1.222160 -2.047008
      ESP Fit Center  555 is at  -1.727901 -0.823559 -2.173628
      ESP Fit Center  556 is at  -1.931654 -0.470647 -2.173628
      ESP Fit Center  557 is at  -2.339161 -0.470647 -2.173628
      ESP Fit Center  558 is at  -2.542915 -0.823559 -2.173628
      ESP Fit Center  559 is at  -2.339161 -1.176470 -2.173628
      ESP Fit Center  560 is at  -1.931654 -1.176470 -2.173628
      ESP Fit Center  561 is at  -2.135408 -0.823559 -2.216459
      ESP Fit Center  562 is at  -0.992417  1.631663  1.649421
      ESP Fit Center  563 is at  -1.399924  1.631663  1.649421
      ESP Fit Center  564 is at  -0.505772  1.677354  1.522801
      ESP Fit Center  565 is at  -0.797569  1.969151  1.522801
      ESP Fit Center  566 is at  -1.196171  2.075956  1.522801
      ESP Fit Center  567 is at  -1.594773  1.969151  1.522801
      ESP Fit Center  568 is at  -1.886570  1.677354  1.522801
      ESP Fit Center  569 is at  -0.121908  1.694924  1.317925
      ESP Fit Center  570 is at  -0.344789  2.054889  1.317925
      ESP Fit Center  571 is at  -0.682654  2.310033  1.317925
      ESP Fit Center  572 is at  -1.089872  2.425897  1.317925
      ESP Fit Center  573 is at  -1.511447  2.386832  1.317925
      ESP Fit Center  574 is at  -1.890442  2.198115  1.317925
      ESP Fit Center  575 is at  -2.175671  1.885233  1.317925
      ESP Fit Center  576 is at  -2.328614  1.490442  1.317925
      ESP Fit Center  577 is at   0.029169  2.066230  1.043747
      ESP Fit Center  578 is at  -0.242324  2.379549  1.043747
      ESP Fit Center  579 is at  -0.591092  2.603689  1.043747
      ESP Fit Center  580 is at  -0.988880  2.720490  1.043747
      ESP Fit Center  581 is at  -1.403462  2.720490  1.043747
      ESP Fit Center  582 is at  -1.801249  2.603689  1.043747
      ESP Fit Center  583 is at  -2.150017  2.379549  1.043747
      ESP Fit Center  584 is at  -2.421510  2.066230  1.043747
      ESP Fit Center  585 is at  -2.593734  1.689113  1.043747
      ESP Fit Center  586 is at  -2.652735  1.278752  1.043747
      ESP Fit Center  587 is at   0.041188  2.440709  0.712251
      ESP Fit Center  588 is at  -0.286653  2.711922  0.712251
      ESP Fit Center  589 is at  -0.671642  2.893085  0.712251
      ESP Fit Center  590 is at  -1.089590  2.972812  0.712251
      ESP Fit Center  591 is at  -1.514234  2.946096  0.712251
      ESP Fit Center  592 is at  -1.918893  2.814614  0.712251
      ESP Fit Center  593 is at  -2.278141  2.586629  0.712251
      ESP Fit Center  594 is at  -2.569404  2.276464  0.712251
      ESP Fit Center  595 is at  -2.774383  1.903610  0.712251
      ESP Fit Center  596 is at  -2.880196  1.491494  0.712251
      ESP Fit Center  597 is at  -0.033942  2.736141  0.337925
      ESP Fit Center  598 is at  -0.387381  2.958222  0.337925
      ESP Fit Center  599 is at  -0.781376  3.096087  0.337925
      ESP Fit Center  600 is at  -1.196171  3.142823  0.337925
      ESP Fit Center  601 is at  -1.610966  3.096087  0.337925
      ESP Fit Center  602 is at  -2.004961  2.958222  0.337925
      ESP Fit Center  603 is at  -2.358400  2.736141  0.337925
      ESP Fit Center  604 is at  -2.653560  2.440981  0.337925
      ESP Fit Center  605 is at  -2.875641  2.087542  0.337925
      ESP Fit Center  606 is at  -3.013505  1.693547  0.337925
      ESP Fit Center  607 is at  -3.060242  1.278752  0.337925
      ESP Fit Center  608 is at   0.065755  2.764406 -0.062873
      ESP Fit Center  609 is at  -0.283120  3.000949 -0.062873
      ESP Fit Center  610 is at  -0.674688  3.156964 -0.062873
      ESP Fit Center  611 is at  -1.090640  3.225156 -0.062873
      ESP Fit Center  612 is at  -1.511527  3.202336 -0.062873
      ESP Fit Center  613 is at  -1.917667  3.089572 -0.062873
      ESP Fit Center  614 is at  -2.290072  2.892135 -0.062873
      ESP Fit Center  615 is at  -2.611327  2.619259 -0.062873
      ESP Fit Center  616 is at  -2.866411  2.283702 -0.062873
      ESP Fit Center  617 is at  -3.043396  1.901155 -0.062873
      ESP Fit Center  618 is at  -3.134007  1.489504 -0.062873
      ESP Fit Center  619 is at  -3.134007  1.068000 -0.062873
      ESP Fit Center  620 is at   0.065755  2.764406 -0.472624
      ESP Fit Center  621 is at  -0.283120  3.000949 -0.472624
      ESP Fit Center  622 is at  -0.674688  3.156964 -0.472624
      ESP Fit Center  623 is at  -1.090640  3.225156 -0.472624
      ESP Fit Center  624 is at  -1.511527  3.202336 -0.472624
      ESP Fit Center  625 is at  -1.917667  3.089572 -0.472624
      ESP Fit Center  626 is at  -2.290072  2.892135 -0.472624
      ESP Fit Center  627 is at  -2.611327  2.619259 -0.472624
      ESP Fit Center  628 is at  -2.866411  2.283702 -0.472624
      ESP Fit Center  629 is at  -3.043396  1.901155 -0.472624
      ESP Fit Center  630 is at  -3.134007  1.489504 -0.472624
      ESP Fit Center  631 is at  -3.134007  1.068000 -0.472624
      ESP Fit Center  632 is at   0.261218  2.440981 -0.873422
      ESP Fit Center  633 is at  -0.033942  2.736141 -0.873422
      ESP Fit Center  634 is at  -0.387381  2.958222 -0.873422
      ESP Fit Center  635 is at  -0.781376  3.096087 -0.873422
      ESP Fit Center  636 is at  -1.196171  3.142823 -0.873422
      ESP Fit Center  637 is at  -1.610966  3.096087 -0.873422
      ESP Fit Center  638 is at  -2.004961  2.958222 -0.873422
      ESP Fit Center  639 is at  -2.358400  2.736141 -0.873422
      ESP Fit Center  640 is at  -2.653560  2.440981 -0.873422
      ESP Fit Center  641 is at  -2.875641  2.087542 -0.873422
      ESP Fit Center  642 is at  -3.013505  1.693547 -0.873422
      ESP Fit Center  643 is at  -3.060242  1.278752 -0.873422
      ESP Fit Center  644 is at  -3.013505  0.863957 -0.873422
      ESP Fit Center  645 is at   0.291281  2.096485 -1.247749
      ESP Fit Center  646 is at   0.041188  2.440709 -1.247749
      ESP Fit Center  647 is at  -0.286653  2.711922 -1.247749
      ESP Fit Center  648 is at  -0.671642  2.893085 -1.247749
      ESP Fit Center  649 is at  -1.089590  2.972812 -1.247749
      ESP Fit Center  650 is at  -1.514234  2.946096 -1.247749
      ESP Fit Center  651 is at  -1.918893  2.814614 -1.247749
      ESP Fit Center  652 is at  -2.278141  2.586629 -1.247749
      ESP Fit Center  653 is at  -2.569404  2.276464 -1.247749
      ESP Fit Center  654 is at  -2.774383  1.903610 -1.247749
      ESP Fit Center  655 is at  -2.880196  1.491494 -1.247749
      ESP Fit Center  656 is at  -2.880196  1.066010 -1.247749
      ESP Fit Center  657 is at   0.260393  1.278752 -1.579245
      ESP Fit Center  658 is at   0.201392  1.689113 -1.579245
      ESP Fit Center  659 is at   0.029169  2.066230 -1.579245
      ESP Fit Center  660 is at  -0.242324  2.379549 -1.579245
      ESP Fit Center  661 is at  -0.591092  2.603689 -1.579245
      ESP Fit Center  662 is at  -0.988880  2.720490 -1.579245
      ESP Fit Center  663 is at  -1.403462  2.720490 -1.579245
      ESP Fit Center  664 is at  -1.801249  2.603689 -1.579245
      ESP Fit Center  665 is at  -2.150017  2.379549 -1.579245
      ESP Fit Center  666 is at  -2.421510  2.066230 -1.579245
      ESP Fit Center  667 is at  -2.593734  1.689113 -1.579245
      ESP Fit Center  668 is at  -2.652735  1.278752 -1.579245
      ESP Fit Center  669 is at  -2.593734  0.868390 -1.579245
      ESP Fit Center  670 is at   0.201392  0.868390 -1.579245
      ESP Fit Center  671 is at  -0.044112  1.278752 -1.853422
      ESP Fit Center  672 is at  -0.121908  1.694924 -1.853422
      ESP Fit Center  673 is at  -0.344789  2.054889 -1.853422
      ESP Fit Center  674 is at  -0.682654  2.310033 -1.853422
      ESP Fit Center  675 is at  -1.089872  2.425897 -1.853422
      ESP Fit Center  676 is at  -1.511447  2.386832 -1.853422
      ESP Fit Center  677 is at  -1.890442  2.198115 -1.853422
      ESP Fit Center  678 is at  -2.175671  1.885233 -1.853422
      ESP Fit Center  679 is at  -2.328614  1.490442 -1.853422
      ESP Fit Center  680 is at  -2.328614  1.067062 -1.853422
      ESP Fit Center  681 is at  -2.175671  0.672271 -1.853422
      ESP Fit Center  682 is at  -0.344789  0.502615 -1.853422
      ESP Fit Center  683 is at  -0.121908  0.862580 -1.853422
      ESP Fit Center  684 is at  -0.398967  1.278752 -2.058298
      ESP Fit Center  685 is at  -0.505772  1.677354 -2.058298
      ESP Fit Center  686 is at  -0.797569  1.969151 -2.058298
      ESP Fit Center  687 is at  -1.196171  2.075956 -2.058298
      ESP Fit Center  688 is at  -1.594773  1.969151 -2.058298
      ESP Fit Center  689 is at  -1.886570  1.677354 -2.058298
      ESP Fit Center  690 is at  -1.993375  1.278752 -2.058298
      ESP Fit Center  691 is at  -1.886570  0.880150 -2.058298
      ESP Fit Center  692 is at  -1.594773  0.588353 -2.058298
      ESP Fit Center  693 is at  -1.196171  0.481548 -2.058298
      ESP Fit Center  694 is at  -0.797569  0.588353 -2.058298
      ESP Fit Center  695 is at  -0.505772  0.880150 -2.058298
      ESP Fit Center  696 is at  -0.788664  1.278752 -2.184918
      ESP Fit Center  697 is at  -0.992417  1.631663 -2.184918
      ESP Fit Center  698 is at  -1.399924  1.631663 -2.184918
      ESP Fit Center  699 is at  -1.603678  1.278752 -2.184918
      ESP Fit Center  700 is at  -1.399924  0.925841 -2.184918
      ESP Fit Center  701 is at  -0.992417  0.925841 -2.184918
      ESP Fit Center  702 is at  -1.196171  1.278752 -2.227749
      ESP Fit Center  703 is at  -0.019050 -0.027568  3.483981
      ESP Fit Center  704 is at   0.415766 -0.027568  3.426737
      ESP Fit Center  705 is at   0.198358  0.348993  3.426737
      ESP Fit Center  706 is at  -0.236458  0.348993  3.426737
      ESP Fit Center  707 is at  -0.453866 -0.027568  3.426737
      ESP Fit Center  708 is at  -0.236458 -0.404130  3.426737
      ESP Fit Center  709 is at   0.198358 -0.404130  3.426737
      ESP Fit Center  710 is at   0.820950 -0.027568  3.258904
      ESP Fit Center  711 is at   0.708411  0.392432  3.258904
      ESP Fit Center  712 is at   0.400950  0.699893  3.258904
      ESP Fit Center  713 is at  -0.019050  0.812432  3.258904
      ESP Fit Center  714 is at  -0.439050  0.699893  3.258904
      ESP Fit Center  715 is at  -0.746511  0.392432  3.258904
      ESP Fit Center  716 is at  -0.859050 -0.027568  3.258904
      ESP Fit Center  717 is at  -0.746511 -0.447568  3.258904
      ESP Fit Center  718 is at  -0.439050 -0.755030  3.258904
      ESP Fit Center  719 is at  -0.019050 -0.867568  3.258904
      ESP Fit Center  720 is at   0.400950 -0.755030  3.258904
      ESP Fit Center  721 is at   0.708411 -0.447568  3.258904
      ESP Fit Center  722 is at   1.168889 -0.027568  2.991921
      ESP Fit Center  723 is at   1.088670  0.401565  2.991921
      ESP Fit Center  724 is at   0.858848  0.772741  2.991921
      ESP Fit Center  725 is at   0.510460  1.035831  2.991921
      ESP Fit Center  726 is at   0.090559  1.155304  2.991921
      ESP Fit Center  727 is at  -0.344145  1.115022  2.991921
      ESP Fit Center  728 is at  -0.734943  0.920428  2.991921
      ESP Fit Center  729 is at  -1.029056  0.597801  2.991921
      ESP Fit Center  730 is at  -1.186763  0.190715  2.991921
      ESP Fit Center  731 is at  -1.186763 -0.245852  2.991921
      ESP Fit Center  732 is at  -1.029056 -0.652938  2.991921
      ESP Fit Center  733 is at  -0.734943 -0.975564  2.991921
      ESP Fit Center  734 is at  -0.344145 -1.170159  2.991921
      ESP Fit Center  735 is at   0.090559 -1.210440  2.991921
      ESP Fit Center  736 is at   0.510460 -1.090968  2.991921
      ESP Fit Center  737 is at   0.858848 -0.827878  2.991921
      ESP Fit Center  738 is at   1.088670 -0.456701  2.991921
      ESP Fit Center  739 is at   1.435873 -0.027568  2.643981
      ESP Fit Center  740 is at   1.371234  0.401278  2.643981
      ESP Fit Center  741 is at   1.183063  0.792019  2.643981
      ESP Fit Center  742 is at   0.888079  1.109936  2.643981
      ESP Fit Center  743 is at   0.512493  1.326781  2.643981
      ESP Fit Center  744 is at   0.089676  1.423286  2.643981
      ESP Fit Center  745 is at  -0.342801  1.390876  2.643981
      ESP Fit Center  746 is at  -0.746511  1.232432  2.643981
      ESP Fit Center  747 is at  -1.085584  0.962030  2.643981
      ESP Fit Center  748 is at  -1.329890  0.603699  2.643981
      ESP Fit Center  749 is at  -1.457722  0.189277  2.643981
      ESP Fit Center  750 is at  -1.457722 -0.244413  2.643981
      ESP Fit Center  751 is at  -1.329890 -0.658836  2.643981
      ESP Fit Center  752 is at  -1.085584 -1.017167  2.643981
      ESP Fit Center  753 is at  -0.746511 -1.287568  2.643981
      ESP Fit Center  754 is at  -0.342801 -1.446013  2.643981
      ESP Fit Center  755 is at   0.089676 -1.478423  2.643981
      ESP Fit Center  756 is at   0.512493 -1.381918  2.643981
      ESP Fit Center  757 is at   0.888079 -1.165073  2.643981
      ESP Fit Center  758 is at   1.183063 -0.847155  2.643981
      ESP Fit Center  759 is at   1.371234 -0.456414  2.643981
      ESP Fit Center  760 is at   1.603705 -0.027568  2.238797
      ESP Fit Center  761 is at   1.548411  0.392432  2.238797
      ESP Fit Center  762 is at   1.386297  0.783809  2.238797
      ESP Fit Center  763 is at   1.128411  1.119893  2.238797
      ESP Fit Center  764 is at   0.792328  1.377779  2.238797
      ESP Fit Center  765 is at   0.400950  1.539893  2.238797
      ESP Fit Center  766 is at  -0.019050  1.595187  2.238797
      ESP Fit Center  767 is at  -0.439050  1.539893  2.238797
      ESP Fit Center  768 is at  -0.830428  1.377779  2.238797
      ESP Fit Center  769 is at  -1.166511  1.119893  2.238797
      ESP Fit Center  770 is at  -1.424397  0.783809  2.238797
      ESP Fit Center  771 is at  -1.586511  0.392432  2.238797
      ESP Fit Center  772 is at  -1.641805 -0.027568  2.238797
      ESP Fit Center  773 is at  -1.586511 -0.447568  2.238797
      ESP Fit Center  774 is at   1.548411 -0.447568  2.238797
      ESP Fit Center  775 is at   0.500098  1.570207  1.803981
      ESP Fit Center  776 is at   0.086438  1.649117  1.803981
      ESP Fit Center  777 is at  -0.333851  1.622674  1.803981
      ESP Fit Center  778 is at  -0.734359  1.492541  1.803981
      ESP Fit Center  779 is at  -1.089922  1.266894  1.803981
      ESP Fit Center  780 is at  -0.019050  1.595187  1.369165
      ESP Fit Center  781 is at  -0.306408 -1.944632  2.505544
      ESP Fit Center  782 is at   0.128408 -1.944632  2.505544
      ESP Fit Center  783 is at  -0.816461 -1.988070  2.337712
      ESP Fit Center  784 is at  -0.509000 -2.295532  2.337712
      ESP Fit Center  785 is at  -0.089000 -2.408070  2.337712
      ESP Fit Center  786 is at   0.331000 -2.295532  2.337712
      ESP Fit Center  787 is at   0.638462 -1.988070  2.337712
      ESP Fit Center  788 is at  -1.256712 -1.786354  2.070728
      ESP Fit Center  789 is at  -1.099006 -2.193440  2.070728
      ESP Fit Center  790 is at  -0.804893 -2.516066  2.070728
      ESP Fit Center  791 is at  -0.414095 -2.710661  2.070728
      ESP Fit Center  792 is at   0.020610 -2.750942  2.070728
      ESP Fit Center  793 is at   0.440510 -2.631470  2.070728
      ESP Fit Center  794 is at   0.788898 -2.368380  2.070728
      ESP Fit Center  795 is at   1.018721 -1.997204  2.070728
      ESP Fit Center  796 is at  -1.527672 -1.784915  1.722789
      ESP Fit Center  797 is at  -1.399840 -2.199338  1.722789
      ESP Fit Center  798 is at  -1.155533 -2.557669  1.722789
      ESP Fit Center  799 is at  -0.816461 -2.828070  1.722789
      ESP Fit Center  800 is at  -0.412750 -2.986515  1.722789
      ESP Fit Center  801 is at   0.019727 -3.018925  1.722789
      ESP Fit Center  802 is at   0.442543 -2.922420  1.722789
      ESP Fit Center  803 is at   0.818130 -2.705575  1.722789
      ESP Fit Center  804 is at   1.113114 -2.387657  1.722789
      ESP Fit Center  805 is at   1.301285 -1.996916  1.722789
      ESP Fit Center  806 is at  -1.656461 -1.988070  1.317605
      ESP Fit Center  807 is at  -1.494347 -2.379448  1.317605
      ESP Fit Center  808 is at  -1.236461 -2.715532  1.317605
      ESP Fit Center  809 is at  -0.900377 -2.973418  1.317605
      ESP Fit Center  810 is at  -0.509000 -3.135532  1.317605
      ESP Fit Center  811 is at  -0.089000 -3.190826  1.317605
      ESP Fit Center  812 is at   0.331000 -3.135532  1.317605
      ESP Fit Center  813 is at   0.722378 -2.973418  1.317605
      ESP Fit Center  814 is at   1.058462 -2.715532  1.317605
      ESP Fit Center  815 is at   1.316348 -2.379448  1.317605
      ESP Fit Center  816 is at   1.478462 -1.988070  1.317605
      ESP Fit Center  817 is at  -1.448148 -2.555550  0.882789
      ESP Fit Center  818 is at  -1.159872 -2.862533  0.882789
      ESP Fit Center  819 is at  -0.804309 -3.088180  0.882789
[...]
 3540 Fit      -0.295321
 3541 Fit      -0.298986
 3542 Fit      -0.299268
 3543 Fit      -0.295848
 3544 Fit      -0.289798
 3545 Fit      -0.282471
 3546 Fit      -0.274857
 3547 Fit      -0.267624
 3548 Fit      -0.261249
 3549 Fit      -0.256049
 3550 Fit      -0.252192
 3551 Fit      -0.249742
 3552 Fit      -0.248681
 3553 Fit      -0.248940
 3554 Fit      -0.250413
 3555 Fit      -0.252962
 3556 Fit      -0.256556
 3557 Fit      -0.260681
 3558 Fit      -0.265321
 3559 Fit      -0.270174
 3560 Fit      -0.275153
 3561 Fit      -0.280159
 3562 Fit      -0.284469
 3563 Fit      -0.286557
 3564 Fit      -0.285178
 3565 Fit      -0.280581
 3566 Fit      -0.274118
 3567 Fit      -0.267198
 3568 Fit      -0.260886
 3569 Fit      -0.255888
 3570 Fit      -0.252592
 3571 Fit      -0.251129
 3572 Fit      -0.251446
 3573 Fit      -0.253352
 3574 Fit      -0.257613
 3575 Fit      -0.261958
 3576 Fit      -0.266994
 3577 Fit      -0.271972
 3578 Fit      -0.275742
 3579 Fit      -0.276435
 3580 Fit      -0.273139
 3581 Fit      -0.267226
 3582 Fit      -0.261025
 3583 Fit      -0.256377
 3584 Fit      -0.254242
 3585 Fit      -0.254790
 3586 Fit      -0.259675
 3587 Fit      -0.264603
 3588 Fit      -0.268652
 3589 Fit      -0.267290
 3590 Fit      -0.261676
 3591 Fit      -0.258110
 3592 Fit      -0.262856
 3593 Fit      -0.250740
 3594 Fit      -0.254549
 3595 Fit      -0.249521
 3596 Fit      -0.246448
 3597 Fit      -0.247608
 3598 Fit      -0.252314
 3599 Fit      -0.253682
 3600 Fit      -0.248779
 3601 Fit      -0.245147
 3602 Fit      -0.243144
 3603 Fit      -0.243063
 3604 Fit      -0.245045
 3605 Fit      -0.248929
 3606 Fit      -0.253142
 3607 Fit      -0.248652
 3608 Fit      -0.245031
 3609 Fit      -0.242328
 3610 Fit      -0.240657
 3611 Fit      -0.240146
 3612 Fit      -0.240900
 3613 Fit      -0.242971
 3614 Fit      -0.246324
 3615 Fit      -0.250817
 3616 Fit      -0.253480
 3617 Fit      -0.249290
 3618 Fit      -0.245707
 3619 Fit      -0.242741
 3620 Fit      -0.240445
 3621 Fit      -0.238885
 3622 Fit      -0.238131
 3623 Fit      -0.238255
 3624 Fit      -0.239312
 3625 Fit      -0.241336
 3626 Fit      -0.244328
 3627 Fit      -0.248248
 3628 Fit      -0.253013
 3629 Fit      -0.253624
 3630 Fit      -0.249554
 3631 Fit      -0.245970
 3632 Fit      -0.242906
 3633 Fit      -0.240398
 3634 Fit      -0.238484
 3635 Fit      -0.237205
 3636 Fit      -0.236607
 3637 Fit      -0.236739
 3638 Fit      -0.237646
 3639 Fit      -0.239362
 3640 Fit      -0.241907
 3641 Fit      -0.245286
 3642 Fit      -0.249484
 3643 Fit      -0.254460
 3644 Fit      -0.253536
 3645 Fit      -0.249379
 3646 Fit      -0.245729
 3647 Fit      -0.242615
 3648 Fit      -0.240048
 3649 Fit      -0.238040
 3650 Fit      -0.236611
 3651 Fit      -0.235790
 3652 Fit      -0.235612
 3653 Fit      -0.236116
 3654 Fit      -0.237339
 3655 Fit      -0.239311
 3656 Fit      -0.242056
 3657 Fit      -0.245595
 3658 Fit      -0.249941
 3659 Fit      -0.255095
 3660 Fit      -0.254283
 3661 Fit      -0.249911
 3662 Fit      -0.246132
 3663 Fit      -0.242931
 3664 Fit      -0.240286
 3665 Fit      -0.238181
 3666 Fit      -0.236614
 3667 Fit      -0.235597
 3668 Fit      -0.235154
 3669 Fit      -0.235313
 3670 Fit      -0.236107
 3671 Fit      -0.237567
 3672 Fit      -0.239723
 3673 Fit      -0.242607
 3674 Fit      -0.246251
 3675 Fit      -0.250695
 3676 Fit      -0.255982
 3677 Fit      -0.262139
 3678 Fit      -0.259076
 3679 Fit      -0.253853
 3680 Fit      -0.249399
 3681 Fit      -0.245645
 3682 Fit      -0.242523
 3683 Fit      -0.239978
 3684 Fit      -0.237978
 3685 Fit      -0.236510
 3686 Fit      -0.235578
 3687 Fit      -0.235200
 3688 Fit      -0.235398
 3689 Fit      -0.236203
 3690 Fit      -0.237646
 3691 Fit      -0.239759
 3692 Fit      -0.242581
 3693 Fit      -0.246157
 3694 Fit      -0.250547
 3695 Fit      -0.255831
 3696 Fit      -0.262104
 3697 Fit      -0.260556
 3698 Fit      -0.254756
 3699 Fit      -0.249966
 3700 Fit      -0.246028
 3701 Fit      -0.242816
 3702 Fit      -0.240247
 3703 Fit      -0.238269
 3704 Fit      -0.236862
 3705 Fit      -0.236023
 3706 Fit      -0.235768
 3707 Fit      -0.236122
 3708 Fit      -0.237114
 3709 Fit      -0.238779
 3710 Fit      -0.241161
 3711 Fit      -0.244311
 3712 Fit      -0.248301
 3713 Fit      -0.253226
 3714 Fit      -0.259225
 3715 Fit      -0.266482
 3716 Fit      -0.275219
 3717 Fit      -0.269520
 3718 Fit      -0.261848
 3719 Fit      -0.255682
 3720 Fit      -0.250710
 3721 Fit      -0.246696
 3722 Fit      -0.243477
 3723 Fit      -0.240945
 3724 Fit      -0.239038
 3725 Fit      -0.237729
 3726 Fit      -0.237013
 3727 Fit      -0.236902
 3728 Fit      -0.237422
 3729 Fit      -0.238603
 3730 Fit      -0.240488
 3731 Fit      -0.243128
 3732 Fit      -0.246593
 3733 Fit      -0.250982
 3734 Fit      -0.256437
 3735 Fit      -0.263167
 3736 Fit      -0.271466
 3737 Fit      -0.281742
 3738 Fit      -0.267698
 3739 Fit      -0.260258
 3740 Fit      -0.254408
 3741 Fit      -0.249776
 3742 Fit      -0.246111
 3743 Fit      -0.243252
 3744 Fit      -0.241099
 3745 Fit      -0.239602
 3746 Fit      -0.238742
 3747 Fit      -0.238525
 3748 Fit      -0.238970
 3749 Fit      -0.240110
 3750 Fit      -0.241991
 3751 Fit      -0.244672
 3752 Fit      -0.248240
 3753 Fit      -0.252817
 3754 Fit      -0.258586
 3755 Fit      -0.265820
 3756 Fit      -0.274931
 3757 Fit      -0.286537
 3758 Fit      -0.301534
 3759 Fit      -0.270532
 3760 Fit      -0.262432
 3761 Fit      -0.256206
 3762 Fit      -0.251377
 3763 Fit      -0.247636
 3764 Fit      -0.244792
 3765 Fit      -0.242733
 3766 Fit      -0.241400
 3767 Fit      -0.240774
 3768 Fit      -0.240862
 3769 Fit      -0.241690
 3770 Fit      -0.243303
 3771 Fit      -0.245762
 3772 Fit      -0.249161
 3773 Fit      -0.253634
 3774 Fit      -0.259383
 3775 Fit      -0.266719
 3776 Fit      -0.276127
 3777 Fit      -0.288367
 3778 Fit      -0.272940
 3779 Fit      -0.264500
 3780 Fit      -0.258112
 3781 Fit      -0.253238
 3782 Fit      -0.249540
 3783 Fit      -0.246809
 3784 Fit      -0.244929
 3785 Fit      -0.243839
 3786 Fit      -0.243522
 3787 Fit      -0.243990
 3788 Fit      -0.245278
 3789 Fit      -0.247445
 3790 Fit      -0.250583
 3791 Fit      -0.254825
 3792 Fit      -0.260377
 3793 Fit      -0.267553
 3794 Fit      -0.276841
 3795 Fit      -0.289020
 3796 Fit      -0.276873
 3797 Fit      -0.267555
 3798 Fit      -0.260683
 3799 Fit      -0.255586
 3800 Fit      -0.251857
 3801 Fit      -0.249255
 3802 Fit      -0.247648
 3803 Fit      -0.246977
 3804 Fit      -0.247234
 3805 Fit      -0.248448
 3806 Fit      -0.250685
 3807 Fit      -0.254054
 3808 Fit      -0.258725
 3809 Fit      -0.264961
 3810 Fit      -0.273167
 3811 Fit      -0.283983
 3812 Fit      -0.298414
 3813 Fit      -0.275713
 3814 Fit      -0.266943
 3815 Fit      -0.260664
 3816 Fit      -0.256233
 3817 Fit      -0.253277
 3818 Fit      -0.251597
 3819 Fit      -0.251104
 3820 Fit      -0.251784
 3821 Fit      -0.253687
 3822 Fit      -0.256923
 3823 Fit      -0.261676
 3824 Fit      -0.268238
 3825 Fit      -0.277063
 3826 Fit      -0.288835
 3827 Fit      -0.274155
 3828 Fit      -0.266501
 3829 Fit      -0.261296
 3830 Fit      -0.258005
 3831 Fit      -0.256343
 3832 Fit      -0.256188
 3833 Fit      -0.257531
 3834 Fit      -0.260452
 3835 Fit      -0.265126
 3836 Fit      -0.271841
 3837 Fit      -0.281021
 3838 Fit      -0.293233
 3839 Fit      -0.277618
 3840 Fit      -0.269803
 3841 Fit      -0.264952
 3842 Fit      -0.262493
 3843 Fit      -0.262158
 3844 Fit      -0.263883
 3845 Fit      -0.267758
 3846 Fit      -0.273999
 3847 Fit      -0.282926
 3848 Fit      -0.276826
 3849 Fit      -0.271222
 3850 Fit      -0.269273
 3851 Fit      -0.270621
 3852 Fit      -0.275233
 3853 Fit      -0.283233
 3854 Fit      -0.284755
 3855 Fit      -0.278753
 3856 Fit      -0.278939
 3857 Fit      -0.284780
 3858 Fit      -0.262882
 3859 Fit      -0.259039
 3860 Fit      -0.257239
 3861 Fit      -0.257472
 3862 Fit      -0.266140
 3863 Fit      -0.260332
 3864 Fit      -0.256472
 3865 Fit      -0.254362
 3866 Fit      -0.253925
 3867 Fit      -0.255212
 3868 Fit      -0.258421
 3869 Fit      -0.270940
 3870 Fit      -0.263517
 3871 Fit      -0.258096
 3872 Fit      -0.254355
 3873 Fit      -0.252100
 3874 Fit      -0.251234
 3875 Fit      -0.251747
 3876 Fit      -0.253719
 3877 Fit      -0.257349
 3878 Fit      -0.263014
 3879 Fit      -0.285849
 3880 Fit      -0.274681
 3881 Fit      -0.266208
 3882 Fit      -0.259815
 3883 Fit      -0.255110
 3884 Fit      -0.251839
 3885 Fit      -0.249850
 3886 Fit      -0.249060
 3887 Fit      -0.249448
 3888 Fit      -0.251057
 3889 Fit      -0.254012
 3890 Fit      -0.258548
 3891 Fit      -0.265071
 3892 Fit      -0.301203
 3893 Fit      -0.286185
 3894 Fit      -0.274793
 3895 Fit      -0.266084
 3896 Fit      -0.259444
 3897 Fit      -0.254475
 3898 Fit      -0.250921
 3899 Fit      -0.248615
 3900 Fit      -0.247459
 3901 Fit      -0.247406
 3902 Fit      -0.248460
 3903 Fit      -0.250682
 3904 Fit      -0.254211
 3905 Fit      -0.259295
 3906 Fit      -0.266344
 3907 Fit      -0.299663
 3908 Fit      -0.285449
 3909 Fit      -0.274415
 3910 Fit      -0.265826
 3911 Fit      -0.259169
 3912 Fit      -0.254095
 3913 Fit      -0.250369
 3914 Fit      -0.247832
 3915 Fit      -0.246382
 3916 Fit      -0.245959
 3917 Fit      -0.246541
 3918 Fit      -0.248147
 3919 Fit      -0.250845
 3920 Fit      -0.254772
 3921 Fit      -0.260161
 3922 Fit      -0.267371
 3923 Fit      -0.276944
 3924 Fit      -0.294793
 3925 Fit      -0.282149
 3926 Fit      -0.272055
 3927 Fit      -0.264043
 3928 Fit      -0.257751
 3929 Fit      -0.252909
 3930 Fit      -0.249328
 3931 Fit      -0.246876
 3932 Fit      -0.245459
 3933 Fit      -0.245021
 3934 Fit      -0.245531
 3935 Fit      -0.246993
 3936 Fit      -0.249446
 3937 Fit      -0.252980
 3938 Fit      -0.257751
 3939 Fit      -0.263994
 3940 Fit      -0.272046
 3941 Fit      -0.301072
 3942 Fit      -0.288029
 3943 Fit      -0.277150
 3944 Fit      -0.268255
 3945 Fit      -0.261092
 3946 Fit      -0.255429
 3947 Fit      -0.251080
 3948 Fit      -0.247907
 3949 Fit      -0.245805
 3950 Fit      -0.244700
 3951 Fit      -0.244542
 3952 Fit      -0.245302
 3953 Fit      -0.246979
 3954 Fit      -0.249603
 3955 Fit      -0.253242
 3956 Fit      -0.258013
 3957 Fit      -0.264081
 3958 Fit      -0.271652
 3959 Fit      -0.292607
 3960 Fit      -0.281813
 3961 Fit      -0.272572
 3962 Fit      -0.264861
 3963 Fit      -0.258569
 3964 Fit      -0.253568
 3965 Fit      -0.249742
 3966 Fit      -0.246996
 3967 Fit      -0.245251
 3968 Fit      -0.244450
 3969 Fit      -0.244547
 3970 Fit      -0.245516
 3971 Fit      -0.247346
 3972 Fit      -0.250052
 3973 Fit      -0.253673
 3974 Fit      -0.258275
 3975 Fit      -0.263934
 3976 Fit      -0.270714
 3977 Fit      -0.278600
 3978 Fit      -0.293536
 3979 Fit      -0.283287
 3980 Fit      -0.274172
 3981 Fit      -0.266347
 3982 Fit      -0.259834
 3983 Fit      -0.254585
 3984 Fit      -0.250527
 3985 Fit      -0.247589
 3986 Fit      -0.245702
 3987 Fit      -0.244806
 3988 Fit      -0.244854
 3989 Fit      -0.245805
 3990 Fit      -0.247634
 3991 Fit      -0.250331
 3992 Fit      -0.253902
 3993 Fit      -0.258357
 3994 Fit      -0.263689
 3995 Fit      -0.269836
 3996 Fit      -0.276610
 3997 Fit      -0.283638
 3998 Fit      -0.303277
 3999 Fit      -0.293090
 4000 Fit      -0.283448
 4001 Fit      -0.274623
 4002 Fit      -0.266862
 4003 Fit      -0.260302
 4004 Fit      -0.254985
 4005 Fit      -0.250896
 4006 Fit      -0.247993
 4007 Fit      -0.246221
 4008 Fit      -0.245525
 4009 Fit      -0.245847
 4010 Fit      -0.247136
 4011 Fit      -0.249347
 4012 Fit      -0.252442
 4013 Fit      -0.256377
 4014 Fit      -0.261081
 4015 Fit      -0.266419
 4016 Fit      -0.272148
 4017 Fit      -0.277902
 4018 Fit      -0.283264
 4019 Fit      -0.300929
 4020 Fit      -0.292164
 4021 Fit      -0.283430
 4022 Fit      -0.275128
 4023 Fit      -0.267601
 4024 Fit      -0.261104
 4025 Fit      -0.255786
 4026 Fit      -0.251710
 4027 Fit      -0.248880
 4028 Fit      -0.247263
 4029 Fit      -0.246805
 4030 Fit      -0.247440
 4031 Fit      -0.249095
 4032 Fit      -0.251690
 4033 Fit      -0.255131
 4034 Fit      -0.259291
 4035 Fit      -0.263986
 4036 Fit      -0.268954
 4037 Fit      -0.273893
 4038 Fit      -0.278585
 4039 Fit      -0.283078
 4040 Fit      -0.287790
 4041 Fit      -0.293362
 4042 Fit      -0.300187
 4043 Fit      -0.307758
 4044 Fit      -0.309055
 4045 Fit      -0.289808
 4046 Fit      -0.282480
 4047 Fit      -0.274863
 4048 Fit      -0.267629
 4049 Fit      -0.261254
 4050 Fit      -0.256053
 4051 Fit      -0.252196
 4052 Fit      -0.249746
 4053 Fit      -0.248685
 4054 Fit      -0.248945
 4055 Fit      -0.250418
 4056 Fit      -0.252969
 4057 Fit      -0.256422
 4058 Fit      -0.260555
 4059 Fit      -0.265091
 4060 Fit      -0.269756
 4061 Fit      -0.274401
 4062 Fit      -0.279138
 4063 Fit      -0.284269
 4064 Fit      -0.289891
 4065 Fit      -0.295330
 4066 Fit      -0.298997
 4067 Fit      -0.299280
 4068 Fit      -0.295860
 4069 Fit      -0.280589
 4070 Fit      -0.274125
 4071 Fit      -0.267203
 4072 Fit      -0.260891
 4073 Fit      -0.255893
 4074 Fit      -0.252596
 4075 Fit      -0.251134
 4076 Fit      -0.251451
 4077 Fit      -0.253358
 4078 Fit      -0.256562
 4079 Fit      -0.260688
 4080 Fit      -0.265327
 4081 Fit      -0.270180
 4082 Fit      -0.275160
 4083 Fit      -0.280166
 4084 Fit      -0.284477
 4085 Fit      -0.286566
 4086 Fit      -0.285187
 4087 Fit      -0.273146
 4088 Fit      -0.267232
 4089 Fit      -0.261030
 4090 Fit      -0.256381
 4091 Fit      -0.254247
 4092 Fit      -0.254795
 4093 Fit      -0.257618
 4094 Fit      -0.261964
 4095 Fit      -0.267000
 4096 Fit      -0.271978
 4097 Fit      -0.275749
 4098 Fit      -0.276442
 4099 Fit      -0.267296
 4100 Fit      -0.261681
 4101 Fit      -0.258115
 4102 Fit      -0.259681
 4103 Fit      -0.264609
 4104 Fit      -0.268658
 4105 Fit      -0.262861
 4106 Fit      -0.221679
 4107 Fit      -0.223466
 4108 Fit      -0.219820
 4109 Fit      -0.218929
 4110 Fit      -0.222118
 4111 Fit      -0.225448
 4112 Fit      -0.225828
 4113 Fit      -0.227684
 4114 Fit      -0.223825
 4115 Fit      -0.219781
 4116 Fit      -0.217347
 4117 Fit      -0.217579
 4118 Fit      -0.220397
 4119 Fit      -0.224729
 4120 Fit      -0.228844
 4121 Fit      -0.230151
 4122 Fit      -0.234736
 4123 Fit      -0.230935
 4124 Fit      -0.226128
 4125 Fit      -0.221531
 4126 Fit      -0.218246
 4127 Fit      -0.216899
 4128 Fit      -0.217656
 4129 Fit      -0.220352
 4130 Fit      -0.224563
 4131 Fit      -0.229575
 4132 Fit      -0.236922
 4133 Fit      -0.245333
 4134 Fit      -0.241335
 4135 Fit      -0.235705
 4136 Fit      -0.229633
 4137 Fit      -0.224278
 4138 Fit      -0.220410
 4139 Fit      -0.218387
 4140 Fit      -0.218280
 4141 Fit      -0.219994
 4142 Fit      -0.223342
 4143 Fit      -0.228071
 4144 Fit      -0.233796
 4145 Fit      -0.249199
 4146 Fit      -0.241226
 4147 Fit      -0.233735
 4148 Fit      -0.227663
 4149 Fit      -0.223455
 4150 Fit      -0.221233
 4151 Fit      -0.220936
 4152 Fit      -0.222422
 4153 Fit      -0.225526
 4154 Fit      -0.230096
 4155 Fit      -0.235999
 4156 Fit      -0.243019
 4157 Fit      -0.247726
 4158 Fit      -0.239051
 4159 Fit      -0.232443
 4160 Fit      -0.228014
 4161 Fit      -0.225681
 4162 Fit      -0.225279
 4163 Fit      -0.226620
 4164 Fit      -0.229522
 4165 Fit      -0.233845
 4166 Fit      -0.239526
 4167 Fit      -0.246600
 4168 Fit      -0.252062
 4169 Fit      -0.242858
 4170 Fit      -0.236526
 4171 Fit      -0.232811
 4172 Fit      -0.231421
 4173 Fit      -0.232076
 4174 Fit      -0.234519
 4175 Fit      -0.238528
 4176 Fit      -0.243949
 4177 Fit      -0.256547
 4178 Fit      -0.247843
 4179 Fit      -0.242470
 4180 Fit      -0.239933
 4181 Fit      -0.239827
 4182 Fit      -0.241814
 4183 Fit      -0.245587
 4184 Fit      -0.250865
 4185 Fit      -0.260436
 4186 Fit      -0.253711
 4187 Fit      -0.250516
 4188 Fit      -0.250275
 4189 Fit      -0.252552
 4190 Fit      -0.256965
 4191 Fit      -0.271536
 4192 Fit      -0.265069
 4193 Fit      -0.262987
 4194 Fit      -0.264563
 4195 Fit      -0.282722
 4196 Fit      -0.278721
 4197 Fit      -0.297438
 4198 Fit      -0.221693
 4199 Fit      -0.222133
 4200 Fit      -0.225467
 4201 Fit      -0.225847
 4202 Fit      -0.223480
 4203 Fit      -0.219829
 4204 Fit      -0.218939
 4205 Fit      -0.224743
 4206 Fit      -0.228865
 4207 Fit      -0.230170
 4208 Fit      -0.227697
 4209 Fit      -0.223834
 4210 Fit      -0.219786
 4211 Fit      -0.217351
 4212 Fit      -0.217585
 4213 Fit      -0.220406
 4214 Fit      -0.229590
 4215 Fit      -0.236942
 4216 Fit      -0.234750
 4217 Fit      -0.230942
 4218 Fit      -0.226130
 4219 Fit      -0.221531
 4220 Fit      -0.218245
 4221 Fit      -0.216898
 4222 Fit      -0.217658
 4223 Fit      -0.220356
 4224 Fit      -0.224572
 4225 Fit      -0.236851
 4226 Fit      -0.246528
 4227 Fit      -0.243606
 4228 Fit      -0.238659
 4229 Fit      -0.232642
 4230 Fit      -0.226802
 4231 Fit      -0.222121
 4232 Fit      -0.219151
 4233 Fit      -0.218092
 4234 Fit      -0.218916
 4235 Fit      -0.221477
 4236 Fit      -0.225557
 4237 Fit      -0.230851
 4238 Fit      -0.252927
 4239 Fit      -0.245226
 4240 Fit      -0.237338
 4241 Fit      -0.230471
 4242 Fit      -0.225299
 4243 Fit      -0.222085
 4244 Fit      -0.220841
 4245 Fit      -0.221458
 4246 Fit      -0.223776
 4247 Fit      -0.227633
 4248 Fit      -0.232892
 4249 Fit      -0.239398
 4250 Fit      -0.252685
 4251 Fit      -0.243128
 4252 Fit      -0.235454
 4253 Fit      -0.229939
 4254 Fit      -0.226576
 4255 Fit      -0.225234
 4256 Fit      -0.225730
 4257 Fit      -0.227875
 4258 Fit      -0.231504
 4259 Fit      -0.236511
 4260 Fit      -0.242883
 4261 Fit      -0.247058
 4262 Fit      -0.239319
 4263 Fit      -0.234334
 4264 Fit      -0.231819
 4265 Fit      -0.231488
 4266 Fit      -0.233070
 4267 Fit      -0.236324
 4268 Fit      -0.241055
 4269 Fit      -0.247171
 4270 Fit      -0.251704
 4271 Fit      -0.244738
 4272 Fit      -0.240842
 4273 Fit      -0.239569
 4274 Fit      -0.240552
 4275 Fit      -0.243472
 4276 Fit      -0.248033
 4277 Fit      -0.260388
 4278 Fit      -0.253668
 4279 Fit      -0.250476
 4280 Fit      -0.250238
 4281 Fit      -0.252517
 4282 Fit      -0.256933
 4283 Fit      -0.267640
 4284 Fit      -0.263482
 4285 Fit      -0.263305
 4286 Fit      -0.266513
 4287 Fit      -0.279926
 4288 Fit      -0.278727
 -----------------------------------------------------------------
 Leave Link  602 at Fri Jun 17 15:24:24 2016, MaxMem=   33554432 cpu:       0.5

 Test job not archived.
 1\1\GINC-NODE41\FOpt\RHF\6-31G(d)\C3H2O4(2-)\DAVE\17-Jun-2016\0\\#HF/6
 -31G* SCF=tight Test Pop=MK iop(6/33=2) iop(6/42=6) opt(MaxCyc=100)\\r
 emark line goes here\\-2,1\C,5.368840598,-3.0715704883,5.3358391297\C,
 6.3946071606,-4.2363383881,5.4018530556\C,4.2951898128,-2.9568197376,6
 .4527951855\O,6.5046304263,-4.9349966903,4.37813228\O,7.0710736392,-4.
 3197768868,6.4374677092\O,4.2031273921,-1.8531844469,7.0200773402\O,3.
 5701185146,-3.9472015905,6.6271024894\H,4.8375411565,-3.1463999824,4.3
 871502919\H,5.9388712999,-2.142711789,5.3225825184\\Version=EM64L-G09R
 evC.01\State=1-A\HF=-414.1362977\RMSD=3.864e-09\RMSF=5.586e-05\Dipole=
 0.0326962,0.7170735,-0.8079681\Quadrupole=-4.5272039,0.9419591,3.58524
 48,8.9195374,7.3089289,-8.1076945\PG=C01 [X(C3H2O4)]\\@


 ART, GLORY, FREEDOM FAIL, BUT NATURE STILL IS FAIR.

                                           -- BYRON
 Job cpu time:  0 days  0 hours  1 minutes 23.8 seconds.
 File lengths (MBytes):  RWF=     17 Int=      0 D2E=      0 Chk=      3 Scr=      1
 Normal termination of Gaussian 09 at Fri Jun 17 15:24:25 2016.
