 Entering Gaussian System, Link 0=/usr/local/g09_c01/g09
 Initial command:
 /usr/local/g09_c01/l1.exe /scr/gf/dave/81293/Gau-17411.inp -scrdir=/scr/gf/dave/81293/
 Entering Link 1 = /usr/local/g09_c01/l1.exe PID=     17413.
  
 Copyright (c) 1988,1990,1992,1993,1995,1998,2003,2009,2011,
            Gaussian, Inc.  All Rights Reserved.
  
 This is part of the Gaussian(R) 09 program.  It is based on
 the Gaussian(R) 03 system (copyright 2003, Gaussian, Inc.),
 the Gaussian(R) 98 system (copyright 1998, Gaussian, Inc.),
 the Gaussian(R) 94 system (copyright 1995, Gaussian, Inc.),
 the Gaussian 92(TM) system (copyright 1992, Gaussian, Inc.),
 the Gaussian 90(TM) system (copyright 1990, Gaussian, Inc.),
 the Gaussian 88(TM) system (copyright 1988, Gaussian, Inc.),
 the Gaussian 86(TM) system (copyright 1986, Carnegie Mellon
 University), and the Gaussian 82(TM) system (copyright 1983,
 Carnegie Mellon University). Gaussian is a federally registered
 trademark of Gaussian, Inc.
  
 This software contains proprietary and confidential information,
 including trade secrets, belonging to Gaussian, Inc.
  
 This software is provided under written license and may be
 used, copied, transmitted, or stored only in accord with that
 written license.
  
 The following legend is applicable only to US Government
 contracts under FAR:
  
                    RESTRICTED RIGHTS LEGEND
  
 Use, reproduction and disclosure by the US Government is
 subject to restrictions as set forth in subparagraphs (a)
 and (c) of the Commercial Computer Software - Restricted
 Rights clause in FAR 52.227-19.
  
 Gaussian, Inc.
 340 Quinnipiac St., Bldg. 40, Wallingford CT 06492
  
  
 ---------------------------------------------------------------
 Warning -- This program may not be used in any manner that
 competes with the business of Gaussian, Inc. or will provide
 assistance to any competitor of Gaussian, Inc.  The licensee
 of this program is prohibited from giving any competitor of
 Gaussian, Inc. access to this program.  By using this program,
 the user acknowledges that Gaussian, Inc. is engaged in the
 business of creating and licensing software in the field of
 computational chemistry and represents and warrants to the
 licensee that it is not a competitor of Gaussian, Inc. and that
 it will not use this program in any manner prohibited above.
 ---------------------------------------------------------------
  

 Cite this work as:
 Gaussian 09, Revision C.01,
 M. J. Frisch, G. W. Trucks, H. B. Schlegel, G. E. Scuseria, 
 M. A. Robb, J. R. Cheeseman, G. Scalmani, V. Barone, B. Mennucci, 
 G. A. Petersson, H. Nakatsuji, M. Caricato, X. Li, H. P. Hratchian, 
 A. F. Izmaylov, J. Bloino, G. Zheng, J. L. Sonnenberg, M. Hada, 
 M. Ehara, K. Toyota, R. Fukuda, J. Hasegawa, M. Ishida, T. Nakajima, 
 Y. Honda, O. Kitao, H. Nakai, T. Vreven, J. A. Montgomery, Jr., 
 J. E. Peralta, F. Ogliaro, M. Bearpark, J. J. Heyd, E. Brothers, 
 K. N. Kudin, V. N. Staroverov, T. Keith, R. Kobayashi, J. Normand, 
 K. Raghavachari, A. Rendell, J. C. Burant, S. S. Iyengar, J. Tomasi, 
 M. Cossi, N. Rega, J. M. Millam, M. Klene, J. E. Knox, J. B. Cross, 
 V. Bakken, C. Adamo, J. Jaramillo, R. Gomperts, R. E. Stratmann, 
 O. Yazyev, A. J. Austin, R. Cammi, C. Pomelli, J. W. Ochterski, 
 R. L. Martin, K. Morokuma, V. G. Zakrzewski, G. A. Voth, 
 P. Salvador, J. J. Dannenberg, S. Dapprich, A. D. Daniels, 
 O. Farkas, J. B. Foresman, J. V. Ortiz, J. Cioslowski, 
 and D. J. Fox, Gaussian, Inc., Wallingford CT, 2010.
 
 ******************************************
 Gaussian 09:  EM64L-G09RevC.01 23-Sep-2011
                21-Jun-2016 
 ******************************************
 %chk=molecule
 ------------------------------------------------------------
 #HF/6-31G* SCF=tight Test Pop=MK iop(6/33=2) iop(6/42=6) opt
 ------------------------------------------------------------
 1/18=20,19=15,38=1/1,3;
 2/9=110,12=2,17=6,18=5,40=1/2;
 3/5=1,6=6,7=1,11=9,16=1,25=1,30=1,71=1/1,2,3;
 4//1;
 5/5=2,32=2,38=5/2;
 6/7=2,8=2,9=2,10=2,15=8,20=1,28=1,33=2,42=6/1,2;
 7//1,2,3,16;
 1/18=20,19=15/3(2);
 2/9=110/2;
 99//99;
 2/9=110/2;
 3/5=1,6=6,7=1,11=9,16=1,25=1,30=1,71=1/1,2,3;
 4/5=5,16=3/1;
 5/5=2,32=2,38=5/2;
 7//1,2,3,16;
 1/18=20,19=15/3(-5);
 2/9=110/2;
 6/7=2,8=2,9=2,10=2,15=8,19=2,20=1,28=1,33=2,42=6/1,2;
 99/9=1/99;
 ---------------------
 remark line goes here
 ---------------------
 Charge = -1 Multiplicity = 1
 Symbolic Z-Matrix:
 C                    -4.518     9.237     12.885 
 C                    -3.159     8.97      12.794 
 C                    -3.279     7.595     14.786 
 C                    -5.273     8.687     13.922 
 C                    -2.529     8.157     13.736 
 C                    -4.634     7.867     14.855 
 C                    -7.015     8.227     15.176 
 C                    -8.441     8.253     15.642 
 C                    -0.452     6.796     14.011 
 C                     3.06      5.486     13.871 
 C                     1.016     6.994     14.214 
 C                     1.844     6.122     13.268 
 N                    -6.637     8.87      14.13 
 N                    -1.127     7.911     13.602 
 O                    -1.006     5.698     14.204 
 O                     3.541     5.819     14.951 
 O                     3.574     4.548     13.119 
 S                    -5.786     7.32      16.032 
 H                    -0.585     8.629     13.165 
 H                     1.194     5.318     12.892 
 H                     2.173     6.751     12.428 
 H                     1.262     8.05      14.031 
 H                     1.27      6.733     15.252 
 H                    -2.804     6.961     15.526 
 H                    -2.581     9.397     11.982 
 H                    -4.994     9.875     12.149 
 H                    -8.844     7.229     15.646 
 H                    -8.487     8.669     16.659 
 H                    -9.038     8.879     14.962 
 

 GradGradGradGradGradGradGradGradGradGradGradGradGradGradGradGradGradGrad
 Berny optimization.
 Initialization pass.
                           ----------------------------
                           !    Initial Parameters    !
                           ! (Angstroms and Degrees)  !
 --------------------------                            --------------------------
 ! Name  Definition              Value          Derivative Info.                !
 --------------------------------------------------------------------------------
 ! R1    R(1,2)                  1.388          estimate D2E/DX2                !
 ! R2    R(1,4)                  1.3957         estimate D2E/DX2                !
 ! R3    R(1,26)                 1.0841         estimate D2E/DX2                !
 ! R4    R(2,5)                  1.3947         estimate D2E/DX2                !
 ! R5    R(2,25)                 1.0843         estimate D2E/DX2                !
 ! R6    R(3,5)                  1.4074         estimate D2E/DX2                !
 ! R7    R(3,6)                  1.3838         estimate D2E/DX2                !
 ! R8    R(3,24)                 1.0841         estimate D2E/DX2                !
 ! R9    R(4,6)                  1.3969         estimate D2E/DX2                !
 ! R10   R(4,13)                 1.3919         estimate D2E/DX2                !
 ! R11   R(5,14)                 1.4297         estimate D2E/DX2                !
 ! R12   R(6,18)                 1.7354         estimate D2E/DX2                !
 ! R13   R(7,8)                  1.5004         estimate D2E/DX2                !
 ! R14   R(7,13)                 1.2847         estimate D2E/DX2                !
 ! R15   R(7,18)                 1.751          estimate D2E/DX2                !
 ! R16   R(8,27)                 1.1005         estimate D2E/DX2                !
 ! R17   R(8,28)                 1.0998         estimate D2E/DX2                !
 ! R18   R(8,29)                 1.1003         estimate D2E/DX2                !
 ! R19   R(9,11)                 1.4951         estimate D2E/DX2                !
 ! R20   R(9,14)                 1.3661         estimate D2E/DX2                !
 ! R21   R(9,15)                 1.2449         estimate D2E/DX2                !
 ! R22   R(10,12)                1.4989         estimate D2E/DX2                !
 ! R23   R(10,16)                1.2283         estimate D2E/DX2                !
 ! R24   R(10,17)                1.3075         estimate D2E/DX2                !
 ! R25   R(11,12)                1.53           estimate D2E/DX2                !
 ! R26   R(11,22)                1.0996         estimate D2E/DX2                !
 ! R27   R(11,23)                1.1            estimate D2E/DX2                !
 ! R28   R(12,20)                1.1001         estimate D2E/DX2                !
 ! R29   R(12,21)                1.0998         estimate D2E/DX2                !
 ! R30   R(14,19)                1.0001         estimate D2E/DX2                !
 ! A1    A(2,1,4)              120.1706         estimate D2E/DX2                !
 ! A2    A(2,1,26)             119.9074         estimate D2E/DX2                !
 ! A3    A(4,1,26)             119.922          estimate D2E/DX2                !
 ! A4    A(1,2,5)              120.6725         estimate D2E/DX2                !
 ! A5    A(1,2,25)             119.6876         estimate D2E/DX2                !
 ! A6    A(5,2,25)             119.6399         estimate D2E/DX2                !
 ! A7    A(5,3,6)              118.7197         estimate D2E/DX2                !
 ! A8    A(5,3,24)             120.6174         estimate D2E/DX2                !
 ! A9    A(6,3,24)             120.6629         estimate D2E/DX2                !
 ! A10   A(1,4,6)              118.6952         estimate D2E/DX2                !
 ! A11   A(1,4,13)             126.1115         estimate D2E/DX2                !
 ! A12   A(6,4,13)             115.193          estimate D2E/DX2                !
 ! A13   A(2,5,3)              119.7316         estimate D2E/DX2                !
 ! A14   A(2,5,14)             118.6818         estimate D2E/DX2                !
 ! A15   A(3,5,14)             121.5859         estimate D2E/DX2                !
 ! A16   A(3,6,4)              122.0079         estimate D2E/DX2                !
 ! A17   A(3,6,18)             128.4542         estimate D2E/DX2                !
 ! A18   A(4,6,18)             109.5343         estimate D2E/DX2                !
 ! A19   A(8,7,13)             121.5898         estimate D2E/DX2                !
 ! A20   A(8,7,18)             121.6161         estimate D2E/DX2                !
 ! A21   A(13,7,18)            116.7941         estimate D2E/DX2                !
 ! A22   A(7,8,27)             109.4539         estimate D2E/DX2                !
 ! A23   A(7,8,28)             109.4821         estimate D2E/DX2                !
 ! A24   A(7,8,29)             109.486          estimate D2E/DX2                !
 ! A25   A(27,8,28)            109.4696         estimate D2E/DX2                !
 ! A26   A(27,8,29)            109.4481         estimate D2E/DX2                !
 ! A27   A(28,8,29)            109.4875         estimate D2E/DX2                !
 ! A28   A(11,9,14)            114.6902         estimate D2E/DX2                !
 ! A29   A(11,9,15)            122.1876         estimate D2E/DX2                !
 ! A30   A(14,9,15)            123.1222         estimate D2E/DX2                !
 ! A31   A(12,10,16)           123.8061         estimate D2E/DX2                !
 ! A32   A(12,10,17)           113.0753         estimate D2E/DX2                !
 ! A33   A(16,10,17)           123.1112         estimate D2E/DX2                !
 ! A34   A(9,11,12)            111.8347         estimate D2E/DX2                !
 ! A35   A(9,11,22)            108.9193         estimate D2E/DX2                !
 ! A36   A(9,11,23)            108.869          estimate D2E/DX2                !
 ! A37   A(12,11,22)           108.8665         estimate D2E/DX2                !
 ! A38   A(12,11,23)           108.8595         estimate D2E/DX2                !
 ! A39   A(22,11,23)           109.4653         estimate D2E/DX2                !
 ! A40   A(10,12,11)           115.6023         estimate D2E/DX2                !
 ! A41   A(10,12,20)           107.8617         estimate D2E/DX2                !
 ! A42   A(10,12,21)           107.894          estimate D2E/DX2                !
 ! A43   A(11,12,20)           107.9444         estimate D2E/DX2                !
 ! A44   A(11,12,21)           107.9499         estimate D2E/DX2                !
 ! A45   A(20,12,21)           109.4928         estimate D2E/DX2                !
 ! A46   A(4,13,7)             110.1338         estimate D2E/DX2                !
 ! A47   A(5,14,9)             126.6497         estimate D2E/DX2                !
 ! A48   A(5,14,19)            116.6702         estimate D2E/DX2                !
 ! A49   A(9,14,19)            116.6801         estimate D2E/DX2                !
 ! A50   A(6,18,7)              88.3436         estimate D2E/DX2                !
 ! D1    D(4,1,2,5)             -0.2871         estimate D2E/DX2                !
 ! D2    D(4,1,2,25)           179.665          estimate D2E/DX2                !
 ! D3    D(26,1,2,5)           179.6699         estimate D2E/DX2                !
 ! D4    D(26,1,2,25)           -0.378          estimate D2E/DX2                !
 ! D5    D(2,1,4,6)             -0.1373         estimate D2E/DX2                !
 ! D6    D(2,1,4,13)          -179.9025         estimate D2E/DX2                !
 ! D7    D(26,1,4,6)           179.9057         estimate D2E/DX2                !
 ! D8    D(26,1,4,13)            0.1405         estimate D2E/DX2                !
 ! D9    D(1,2,5,3)              0.3467         estimate D2E/DX2                !
 ! D10   D(1,2,5,14)          -179.9504         estimate D2E/DX2                !
 ! D11   D(25,2,5,3)          -179.6054         estimate D2E/DX2                !
 ! D12   D(25,2,5,14)            0.0975         estimate D2E/DX2                !
 ! D13   D(6,3,5,2)              0.0209         estimate D2E/DX2                !
 ! D14   D(6,3,5,14)          -179.6731         estimate D2E/DX2                !
 ! D15   D(24,3,5,2)           179.9973         estimate D2E/DX2                !
 ! D16   D(24,3,5,14)            0.3032         estimate D2E/DX2                !
 ! D17   D(5,3,6,4)             -0.4566         estimate D2E/DX2                !
 ! D18   D(5,3,6,18)          -179.6844         estimate D2E/DX2                !
 ! D19   D(24,3,6,4)           179.567          estimate D2E/DX2                !
 ! D20   D(24,3,6,18)            0.3392         estimate D2E/DX2                !
 ! D21   D(1,4,6,3)              0.5164         estimate D2E/DX2                !
 ! D22   D(1,4,6,18)           179.8748         estimate D2E/DX2                !
 ! D23   D(13,4,6,3)          -179.6933         estimate D2E/DX2                !
 ! D24   D(13,4,6,18)           -0.3349         estimate D2E/DX2                !
 ! D25   D(1,4,13,7)          -179.8267         estimate D2E/DX2                !
 ! D26   D(6,4,13,7)             0.401          estimate D2E/DX2                !
 ! D27   D(2,5,14,9)          -150.8492         estimate D2E/DX2                !
 ! D28   D(2,5,14,19)           29.2163         estimate D2E/DX2                !
 ! D29   D(3,5,14,9)            28.8479         estimate D2E/DX2                !
 ! D30   D(3,5,14,19)         -151.0865         estimate D2E/DX2                !
 ! D31   D(3,6,18,7)           179.4447         estimate D2E/DX2                !
 ! D32   D(4,6,18,7)             0.1395         estimate D2E/DX2                !
 ! D33   D(13,7,8,27)          120.0319         estimate D2E/DX2                !
 ! D34   D(13,7,8,28)         -119.9739         estimate D2E/DX2                !
 ! D35   D(13,7,8,29)            0.0618         estimate D2E/DX2                !
 ! D36   D(18,7,8,27)          -60.0117         estimate D2E/DX2                !
 ! D37   D(18,7,8,28)           59.9825         estimate D2E/DX2                !
 ! D38   D(18,7,8,29)         -179.9818         estimate D2E/DX2                !
 ! D39   D(8,7,13,4)           179.6713         estimate D2E/DX2                !
 ! D40   D(18,7,13,4)           -0.2872         estimate D2E/DX2                !
 ! D41   D(8,7,18,6)          -179.8698         estimate D2E/DX2                !
 ! D42   D(13,7,18,6)            0.0886         estimate D2E/DX2                !
 ! D43   D(14,9,11,12)        -117.7054         estimate D2E/DX2                !
 ! D44   D(14,9,11,22)           2.6645         estimate D2E/DX2                !
 ! D45   D(14,9,11,23)         121.9668         estimate D2E/DX2                !
 ! D46   D(15,9,11,12)          62.3872         estimate D2E/DX2                !
 ! D47   D(15,9,11,22)        -177.2428         estimate D2E/DX2                !
 ! D48   D(15,9,11,23)         -57.9406         estimate D2E/DX2                !
 ! D49   D(11,9,14,5)         -158.4432         estimate D2E/DX2                !
 ! D50   D(11,9,14,19)          21.4912         estimate D2E/DX2                !
 ! D51   D(15,9,14,5)           21.4632         estimate D2E/DX2                !
 ! D52   D(15,9,14,19)        -158.6024         estimate D2E/DX2                !
 ! D53   D(16,10,12,11)        -14.1274         estimate D2E/DX2                !
 ! D54   D(16,10,12,20)       -135.0147         estimate D2E/DX2                !
 ! D55   D(16,10,12,21)        106.7914         estimate D2E/DX2                !
 ! D56   D(17,10,12,11)        166.8387         estimate D2E/DX2                !
 ! D57   D(17,10,12,20)         45.9513         estimate D2E/DX2                !
 ! D58   D(17,10,12,21)        -72.2425         estimate D2E/DX2                !
 ! D59   D(9,11,12,10)        -139.2567         estimate D2E/DX2                !
 ! D60   D(9,11,12,20)         -18.4141         estimate D2E/DX2                !
 ! D61   D(9,11,12,21)          99.8547         estimate D2E/DX2                !
 ! D62   D(22,11,12,10)        100.3425         estimate D2E/DX2                !
 ! D63   D(22,11,12,20)       -138.8149         estimate D2E/DX2                !
 ! D64   D(22,11,12,21)        -20.5461         estimate D2E/DX2                !
 ! D65   D(23,11,12,10)        -18.9233         estimate D2E/DX2                !
 ! D66   D(23,11,12,20)        101.9193         estimate D2E/DX2                !
 ! D67   D(23,11,12,21)       -139.8119         estimate D2E/DX2                !
 --------------------------------------------------------------------------------
 Trust Radius=3.00D-01 FncErr=1.00D-07 GrdErr=1.00D-07
 Number of steps in this run=    157 maximum allowed number of steps=    174.
 GradGradGradGradGradGradGradGradGradGradGradGradGradGradGradGradGradGrad

                          Input orientation:                          
 ---------------------------------------------------------------------
 Center     Atomic      Atomic             Coordinates (Angstroms)
 Number     Number       Type             X           Y           Z
 ---------------------------------------------------------------------
      1          6           0       -4.518000    9.237000   12.885000
      2          6           0       -3.159000    8.970000   12.794000
      3          6           0       -3.279000    7.595000   14.786000
      4          6           0       -5.273000    8.687000   13.922000
      5          6           0       -2.529000    8.157000   13.736000
      6          6           0       -4.634000    7.867000   14.855000
      7          6           0       -7.015000    8.227000   15.176000
      8          6           0       -8.441000    8.253000   15.642000
      9          6           0       -0.452000    6.796000   14.011000
     10          6           0        3.060000    5.486000   13.871000
     11          6           0        1.016000    6.994000   14.214000
     12          6           0        1.844000    6.122000   13.268000
     13          7           0       -6.637000    8.870000   14.130000
     14          7           0       -1.127000    7.911000   13.602000
     15          8           0       -1.006000    5.698000   14.204000
     16          8           0        3.541000    5.819000   14.951000
     17          8           0        3.574000    4.548000   13.119000
     18         16           0       -5.786000    7.320000   16.032000
     19          1           0       -0.585000    8.629000   13.165000
     20          1           0        1.194000    5.318000   12.892000
     21          1           0        2.173000    6.751000   12.428000
     22          1           0        1.262000    8.050000   14.031000
     23          1           0        1.270000    6.733000   15.252000
     24          1           0       -2.804000    6.961000   15.526000
     25          1           0       -2.581000    9.397000   11.982000
     26          1           0       -4.994000    9.875000   12.149000
     27          1           0       -8.844000    7.229000   15.646000
     28          1           0       -8.487000    8.669000   16.659000
     29          1           0       -9.038000    8.879000   14.962000
 ---------------------------------------------------------------------
                    Distance matrix (angstroms):
                    1          2          3          4          5
     1  C    0.000000
     2  C    1.387966   0.000000
     3  C    2.800908   2.423446   0.000000
     4  C    1.395670   2.412772   2.432076   0.000000
     5  C    2.418000   1.394716   1.407425   2.800898   0.000000
     6  C    2.402344   2.764047   1.383752   1.396857   2.401517
     7  C    3.536070   4.592898   3.809097   2.195149   4.711974
     8  C    4.894817   6.043568   5.273703   3.630837   6.212391
     9  C    4.874291   3.679024   3.038249   5.179367   2.498374
    10  C    8.512830   7.209310   6.742998   8.926807   6.195917
    11  C    6.117389   4.832349   4.374404   6.519435   3.761393
    12  C    7.094009   5.776313   5.542489   7.593328   4.845965
    13  N    2.484930   3.727114   3.651318   1.391851   4.187991
    14  N    3.710963   2.429685   2.476452   4.230117   1.429712
    15  O    5.157366   4.162871   3.017261   5.217368   2.930057
    16  O    8.994363   7.711773   7.049383   9.325817   6.617203
    17  O    9.355316   8.061823   7.682884   9.800283   7.117034
    18  S    3.896963   4.484225   2.813039   2.565922   4.071883
    19  H    3.989555   2.622861   3.309748   4.749080   2.080375
    20  H    6.927161   5.682897   5.364671   7.364316   4.757414
    21  H    7.152519   5.786894   5.999734   7.837286   5.079026
    22  H    6.010881   4.682073   4.625768   6.566877   3.803966
    23  H    6.735997   5.537326   4.653343   6.956857   4.331101
    24  H    3.884952   3.409682   1.084058   3.412895   2.170286
    25  H    2.143123   1.084323   3.405411   3.393312   2.148679
    26  H    1.084120   2.145291   3.885022   2.152374   3.397987
    27  H    5.510849   6.594256   5.642941   4.224924   6.662470
    28  H    5.506238   6.589113   5.637807   4.221527   6.656113
    29  H    4.987233   6.266669   5.903026   3.910715   6.662690
                    6          7          8          9         10
     6  C    0.000000
     7  C    2.429362   0.000000
     8  C    3.906612   1.500436   0.000000
     9  C    4.398693   6.817474   8.282942   0.000000
    10  C    8.113880  10.522439  11.961009   3.750979   0.000000
    11  C    5.752870   8.181852   9.646715   1.495138   2.563133
    12  C    6.894061   9.303406  10.768392   2.505582   1.498920
    13  N    2.354494   1.284698   2.433362   6.524558  10.273770
    14  N    3.724378   6.102940   7.600866   1.366064   4.846025
    15  O    4.276768   6.591563   7.992190   1.244897   4.085118
    16  O    8.428176  10.829507  12.246230   4.216892   1.228271
    17  O    9.022235  11.397070  12.823914   4.696578   1.307495
    18  S    1.735408   1.750950   2.841059   5.728051   9.288982
    19  H    4.453217   6.749120   8.245826   2.023189   4.864454
    20  H    6.657053   9.003700  10.440783   2.479105   2.113911
    21  H    7.312389   9.703063  11.191193   3.065704   2.114058
    22  H    5.956113   8.357696   9.837924   2.123844   3.135682
    23  H    6.025013   8.418969   9.836972   2.123519   2.581912
    24  H    2.149413   4.411097   5.784331   2.802562   6.269063
    25  H    3.848355   5.588461   7.003138   3.926154   7.119348
    26  H    3.388820   3.995382   5.168534   5.794571   9.332498
    27  H    4.330915   2.135918   1.100455   8.560746  12.161163
    28  H    4.329345   2.135752   1.099755   8.664944  12.297871
    29  H    4.520045   2.136218   1.100311   8.886095  12.612071
                   11         12         13         14         15
    11  C    0.000000
    12  C    1.529995   0.000000
    13  N    7.880028   8.956668   0.000000
    14  N    2.409955   3.484095   5.617701   0.000000
    15  O    2.401708   3.029583   6.463375   2.296609   0.000000
    16  O    2.880871   2.409171  10.657126   5.290226   4.609540
    17  O    3.704768   2.343625  11.134017   5.800212   4.845217
    18  S    7.048305   8.203158   2.596980   5.287765   5.368507
    19  H    2.517306   3.492234   6.133189   1.000128   3.138076
    20  H    2.142042   1.100133   8.687572   3.551731   2.589545
    21  H    2.141844   1.099765   9.219711   3.689699   3.790650
    22  H    1.099609   2.153620   7.942065   2.431190   3.271950
    23  H    1.100037   2.153846   8.267182   3.139394   2.711034
    24  H    4.039162   5.235111   4.503886   2.723344   2.564304
    25  H    4.867714   5.653322   4.619823   2.635662   4.593529
    26  H    6.977427   7.880064   2.762940   4.574078   6.129804
    27  H    9.966215  11.005166   3.140380   8.012188   8.115268
    28  H    9.954429  11.167616   3.139863   8.005586   8.415416
    29  H   10.256493  11.352912   2.541084   8.085205   8.672159
                   16         17         18         19         20
    16  O    0.000000
    17  O    2.229967   0.000000
    18  S    9.508653  10.187205   0.000000
    19  H    5.301865   5.827002   6.081412   0.000000
    20  H    3.162102   2.511738   7.911258   3.768566   0.000000
    21  H    3.017545   2.700646   8.755470   3.417107   1.796448
    22  H    3.319277   4.294309   7.362826   2.120520   2.960704
    23  H    2.466463   3.825223   7.123209   3.375116   2.752744
    24  H    6.472543   7.231535   3.045856   3.644243   5.061759
    25  H    7.687388   7.917676   5.566727   2.444039   5.631782
    26  H    9.856397  10.135505   4.715186   4.692979   7.720728
    27  H   12.484364  12.953000   3.083608   8.736501  10.582905
    28  H   12.478483  13.228075   3.083558   8.640095  10.915184
    29  H   12.945847  13.461677   3.761766   8.645514  11.029934
                   21         22         23         24         25
    21  H    0.000000
    22  H    2.255423   0.000000
    23  H    2.964913   1.795938   0.000000
    24  H    5.866194   4.466912   4.089564   0.000000
    25  H    5.459006   4.558669   5.711392   4.306247   0.000000
    26  H    7.823241   6.783073   7.664103   4.969067   2.465551
    27  H   11.487310  10.267108  10.133817   6.047134   7.572997
    28  H   11.628228  10.115955  10.046233   6.041311   7.568695
    29  H   11.689143  10.375163  10.533009   6.546723   7.130328
                   26         27         28         29
    26  H    0.000000
    27  H    5.835480   0.000000
    28  H    5.830573   1.796446   0.000000
    29  H    5.025825   1.796661   1.796527   0.000000
 Stoichiometry    C12H11N2O3S(1-)
 Framework group  C1[X(C12H11N2O3S)]
 Deg. of freedom    81
 Full point group                 C1      NOp   1
 Largest Abelian subgroup         C1      NOp   1
 Largest concise Abelian subgroup C1      NOp   1
                         Standard orientation:                         
 ---------------------------------------------------------------------
 Center     Atomic      Atomic             Coordinates (Angstroms)
 Number     Number       Type             X           Y           Z
 ---------------------------------------------------------------------
      1          6           0        2.351911    2.132257    0.107679
      2          6           0        0.970353    2.138597   -0.025391
      3          6           0        0.965070   -0.273788   -0.256607
      4          6           0        3.055378    0.927671    0.062931
      5          6           0        0.267972    0.948018   -0.210905
      6          6           0        2.341423   -0.259779   -0.114382
      7          6           0        4.753203   -0.463397    0.094565
      8          6           0        6.180971   -0.915980    0.183746
      9          6           0       -2.045739    0.032184    0.012400
     10          6           0       -5.769078   -0.420224    0.056168
     11          6           0       -3.371725    0.119025   -0.672914
     12          6           0       -4.511677    0.351604    0.320716
     13          7           0        4.433807    0.777733    0.184183
     14          7           0       -1.154416    1.004075   -0.344114
     15          8           0       -1.784057   -0.860446    0.839748
     16          8           0       -6.007445   -0.996342   -1.002095
     17          8           0       -6.602444   -0.403062    1.063517
     18         16           0        3.442520   -1.600928   -0.137724
     19          1           0       -1.535667    1.839861   -0.739545
     20          1           0       -4.150168    0.074711    1.322182
     21          1           0       -4.762567    1.422241    0.304165
     22          1           0       -3.348846    0.952884   -1.389361
     23          1           0       -3.556078   -0.822183   -1.211637
     24          1           0        0.433576   -1.207655   -0.400093
     25          1           0        0.431153    3.078440    0.016014
     26          1           0        2.885917    3.065537    0.246031
     27          1           0        6.294660   -1.604767    1.034422
     28          1           0        6.460786   -1.432435   -0.746006
     29          1           0        6.834379   -0.042773    0.329531
 ---------------------------------------------------------------------
 Rotational constants (GHZ):      1.3285798      0.1234147      0.1162952
 Standard basis: 6-31G(d) (6D, 7F)
 There are   296 symmetry adapted basis functions of A   symmetry.
 Integral buffers will be    131072 words long.
 Raffenetti 1 integral format.
 Two-electron integral symmetry is turned on.
   296 basis functions,   572 primitive gaussians,   296 cartesian basis functions
    69 alpha electrons       69 beta electrons
       nuclear repulsion energy      1297.1752288523 Hartrees.
 NAtoms=   29 NActive=   29 NUniq=   29 SFac= 1.00D+00 NAtFMM=   60 NAOKFM=F Big=F
 One-electron integrals computed using PRISM.
 NBasis=   296 RedAO= T  NBF=   296
 NBsUse=   296 1.00D-06 NBFU=   296
 Harris functional with IExCor=  205 diagonalized for initial guess.
 ExpMin= 1.17D-01 ExpMax= 2.19D+04 ExpMxC= 3.30D+03 IAcc=1 IRadAn=         1 AccDes= 0.00D+00
 HarFok:  IExCor=  205 AccDes= 0.00D+00 IRadAn=         1 IDoV= 1
 ScaDFX=  1.000000  1.000000  1.000000  1.000000
 FoFCou: FMM=F IPFlag=           0 FMFlag=      100000 FMFlg1=           0
         NFxFlg=           0 DoJE=T BraDBF=F KetDBF=T FulRan=T
         Omega=  0.000000  0.000000  1.000000  0.000000  0.000000 ICntrl=     500 IOpCl=  0
         NMat0=    1 NMatS0=    1 NMatT0=    0 NMatD0=    1 NMtDS0=    0 NMtDT0=    0
         I1Cent=           4 NGrid=           0.
 Petite list used in FoFCou.
 Initial guess orbital symmetries:
       Occupied  (A) (A) (A) (A) (A) (A) (A) (A) (A) (A) (A) (A)
                 (A) (A) (A) (A) (A) (A) (A) (A) (A) (A) (A) (A)
                 (A) (A) (A) (A) (A) (A) (A) (A) (A) (A) (A) (A)
                 (A) (A) (A) (A) (A) (A) (A) (A) (A) (A) (A) (A)
                 (A) (A) (A) (A) (A) (A) (A) (A) (A) (A) (A) (A)
                 (A) (A) (A) (A) (A) (A) (A) (A) (A)
       Virtual   (A) (A) (A) (A) (A) (A) (A) (A) (A) (A) (A) (A)
                 (A) (A) (A) (A) (A) (A) (A) (A) (A) (A) (A) (A)
                 (A) (A) (A) (A) (A) (A) (A) (A) (A) (A) (A) (A)
                 (A) (A) (A) (A) (A) (A) (A) (A) (A) (A) (A) (A)
                 (A) (A) (A) (A) (A) (A) (A) (A) (A) (A) (A) (A)
                 (A) (A) (A) (A) (A) (A) (A) (A) (A) (A) (A) (A)
                 (A) (A) (A) (A) (A) (A) (A) (A) (A) (A) (A) (A)
                 (A) (A) (A) (A) (A) (A) (A) (A) (A) (A) (A) (A)
                 (A) (A) (A) (A) (A) (A) (A) (A) (A) (A) (A) (A)
                 (A) (A) (A) (A) (A) (A) (A) (A) (A) (A) (A) (A)
                 (A) (A) (A) (A) (A) (A) (A) (A) (A) (A) (A) (A)
                 (A) (A) (A) (A) (A) (A) (A) (A) (A) (A) (A) (A)
                 (A) (A) (A) (A) (A) (A) (A) (A) (A) (A) (A) (A)
                 (A) (A) (A) (A) (A) (A) (A) (A) (A) (A) (A) (A)
                 (A) (A) (A) (A) (A) (A) (A) (A) (A) (A) (A) (A)
                 (A) (A) (A) (A) (A) (A) (A) (A) (A) (A) (A) (A)
                 (A) (A) (A) (A) (A) (A) (A) (A) (A) (A) (A) (A)
                 (A) (A) (A) (A) (A) (A) (A) (A) (A) (A) (A) (A)
                 (A) (A) (A) (A) (A) (A) (A) (A) (A) (A) (A)
 The electronic state of the initial guess is 1-A.
 Requested convergence on RMS density matrix=1.00D-08 within 128 cycles.
 Requested convergence on MAX density matrix=1.00D-06.
 Requested convergence on             energy=1.00D-06.
 No special actions if energy rises.
 Integral accuracy reduced to 1.0D-05 until final iterations.
 Initial convergence to 1.0D-05 achieved.  Increase integral accuracy.
 SCF Done:  E(RHF) =  -1191.86107033     A.U. after   16 cycles
             Convg  =    0.9727D-08             -V/T =  2.0015

 **********************************************************************

            Population analysis using the SCF density.

 **********************************************************************

 Orbital symmetries:
 BldTbl:  Degeneracy threshold= 1.00D-02
       Occupied  (A) (A) (A) (A) (A) (A) (A) (A) (A) (A) (A) (A)
                 (A) (A) (A) (A) (A) (A) (A) (A) (A) (A) (A) (A)
                 (A) (A) (A) (A) (A) (A) (A) (A) (A) (A) (A) (A)
                 (A) (A) (A) (A) (A) (A) (A) (A) (A) (A) (A) (A)
                 (A) (A) (A) (A) (A) (A) (A) (A) (A) (A) (A) (A)
                 (A) (A) (A) (A) (A) (A) (A) (A) (A)
       Virtual   (A) (A) (A) (A) (A) (A) (A) (A) (A) (A) (A) (A)
                 (A) (A) (A) (A) (A) (A) (A) (A) (A) (A) (A) (A)
                 (A) (A) (A) (A) (A) (A) (A) (A) (A) (A) (A) (A)
                 (A) (A) (A) (A) (A) (A) (A) (A) (A) (A) (A) (A)
                 (A) (A) (A) (A) (A) (A) (A) (A) (A) (A) (A) (A)
                 (A) (A) (A) (A) (A) (A) (A) (A) (A) (A) (A) (A)
                 (A) (A) (A) (A) (A) (A) (A) (A) (A) (A) (A) (A)
                 (A) (A) (A) (A) (A) (A) (A) (A) (A) (A) (A) (A)
                 (A) (A) (A) (A) (A) (A) (A) (A) (A) (A) (A) (A)
                 (A) (A) (A) (A) (A) (A) (A) (A) (A) (A) (A) (A)
                 (A) (A) (A) (A) (A) (A) (A) (A) (A) (A) (A) (A)
                 (A) (A) (A) (A) (A) (A) (A) (A) (A) (A) (A) (A)
                 (A) (A) (A) (A) (A) (A) (A) (A) (A) (A) (A) (A)
                 (A) (A) (A) (A) (A) (A) (A) (A) (A) (A) (A) (A)
                 (A) (A) (A) (A) (A) (A) (A) (A) (A) (A) (A) (A)
                 (A) (A) (A) (A) (A) (A) (A) (A) (A) (A) (A) (A)
                 (A) (A) (A) (A) (A) (A) (A) (A) (A) (A) (A) (A)
                 (A) (A) (A) (A) (A) (A) (A) (A) (A) (A) (A) (A)
                 (A) (A) (A) (A) (A) (A) (A) (A) (A) (A) (A)
 The electronic state is 1-A.
 Alpha  occ. eigenvalues --  -91.91474 -20.42352 -20.29348 -20.25830 -15.51427
 Alpha  occ. eigenvalues --  -15.51153 -11.25870 -11.25203 -11.22163 -11.20715
 Alpha  occ. eigenvalues --  -11.20116 -11.19390 -11.17953 -11.17469 -11.17341
 Alpha  occ. eigenvalues --  -11.12734 -11.10731 -11.07318  -8.92599  -6.60852
 Alpha  occ. eigenvalues --   -6.60764  -6.60577  -1.26696  -1.22724  -1.15986
 Alpha  occ. eigenvalues --   -1.15802  -1.07465  -1.02715  -1.01076  -0.97738
 Alpha  occ. eigenvalues --   -0.94163  -0.91761  -0.89248  -0.79586  -0.76250
 Alpha  occ. eigenvalues --   -0.74131  -0.70034  -0.68784  -0.63154  -0.60937
 Alpha  occ. eigenvalues --   -0.58672  -0.56314  -0.55467  -0.54173  -0.53628
 Alpha  occ. eigenvalues --   -0.52039  -0.50755  -0.49732  -0.49045  -0.48536
 Alpha  occ. eigenvalues --   -0.47734  -0.46843  -0.45608  -0.41863  -0.41312
 Alpha  occ. eigenvalues --   -0.39783  -0.39690  -0.37358  -0.36656  -0.35117
 Alpha  occ. eigenvalues --   -0.34026  -0.32743  -0.31715  -0.30609  -0.25571
 Alpha  occ. eigenvalues --   -0.22388  -0.19740  -0.17376  -0.16439
 Alpha virt. eigenvalues --    0.17399   0.20121   0.22187   0.25351   0.29889
 Alpha virt. eigenvalues --    0.30236   0.30587   0.31411   0.33226   0.36454
 Alpha virt. eigenvalues --    0.36588   0.37499   0.38453   0.40487   0.42093
 Alpha virt. eigenvalues --    0.42236   0.43841   0.44659   0.44895   0.46471
 Alpha virt. eigenvalues --    0.48184   0.50529   0.50822   0.53410   0.55383
 Alpha virt. eigenvalues --    0.55756   0.56538   0.59175   0.59539   0.60171
 Alpha virt. eigenvalues --    0.62796   0.65023   0.66450   0.67101   0.69874
 Alpha virt. eigenvalues --    0.72073   0.74159   0.76637   0.77761   0.79555
 Alpha virt. eigenvalues --    0.80897   0.81471   0.81990   0.82693   0.85200
 Alpha virt. eigenvalues --    0.86168   0.88495   0.88879   0.89259   0.90355
 Alpha virt. eigenvalues --    0.91443   0.93041   0.93251   0.94677   0.95325
 Alpha virt. eigenvalues --    0.97114   0.99911   1.00230   1.01597   1.01904
 Alpha virt. eigenvalues --    1.03844   1.05125   1.05628   1.07675   1.08180
 Alpha virt. eigenvalues --    1.09771   1.10778   1.11039   1.11891   1.12304
 Alpha virt. eigenvalues --    1.14435   1.15319   1.16241   1.16605   1.17282
 Alpha virt. eigenvalues --    1.18722   1.18845   1.19536   1.20093   1.21009
 Alpha virt. eigenvalues --    1.22462   1.24466   1.25122   1.25729   1.26292
 Alpha virt. eigenvalues --    1.26837   1.27800   1.27894   1.28871   1.30065
 Alpha virt. eigenvalues --    1.31500   1.31594   1.33785   1.34975   1.36319
 Alpha virt. eigenvalues --    1.38162   1.38612   1.38791   1.42194   1.45339
 Alpha virt. eigenvalues --    1.45653   1.47205   1.48604   1.50904   1.51462
 Alpha virt. eigenvalues --    1.53660   1.55713   1.56602   1.58843   1.59722
 Alpha virt. eigenvalues --    1.61643   1.64326   1.64670   1.66883   1.67437
 Alpha virt. eigenvalues --    1.69780   1.71120   1.73119   1.75688   1.78332
 Alpha virt. eigenvalues --    1.79205   1.80234   1.83489   1.86670   1.90562
 Alpha virt. eigenvalues --    1.92002   1.93217   1.94499   1.98487   1.99893
 Alpha virt. eigenvalues --    2.00918   2.04240   2.05454   2.06743   2.09053
 Alpha virt. eigenvalues --    2.14058   2.16938   2.18256   2.19757   2.21052
 Alpha virt. eigenvalues --    2.23122   2.23971   2.25583   2.27210   2.28172
 Alpha virt. eigenvalues --    2.29479   2.30599   2.30736   2.31874   2.33539
 Alpha virt. eigenvalues --    2.33983   2.36993   2.39039   2.40155   2.40382
 Alpha virt. eigenvalues --    2.42005   2.44383   2.45257   2.47123   2.49012
 Alpha virt. eigenvalues --    2.49538   2.51773   2.52493   2.53134   2.55268
 Alpha virt. eigenvalues --    2.56602   2.57807   2.60066   2.63800   2.65240
 Alpha virt. eigenvalues --    2.66134   2.67914   2.69574   2.71199   2.73772
 Alpha virt. eigenvalues --    2.76282   2.78705   2.81870   2.84720   2.85210
 Alpha virt. eigenvalues --    2.87640   2.89957   2.91834   2.94488   2.99207
 Alpha virt. eigenvalues --    3.00869   3.02691   3.04899   3.07336   3.08334
 Alpha virt. eigenvalues --    3.09557   3.09977   3.15070   3.19697   3.22735
 Alpha virt. eigenvalues --    3.24155   3.26164   3.27169   3.36629   3.40272
 Alpha virt. eigenvalues --    3.41361   3.44109   3.46185   3.49742   3.59282
 Alpha virt. eigenvalues --    3.60310   3.71574   3.73937   3.87448   4.42753
 Alpha virt. eigenvalues --    4.48833   4.54883   4.55792   4.58890   4.60450
 Alpha virt. eigenvalues --    4.64969   4.67913   4.70002   4.71180   4.80530
 Alpha virt. eigenvalues --    4.86368   4.86985   4.92036   4.95638   5.05895
 Alpha virt. eigenvalues --    5.17227   5.25136
          Condensed to atoms (all electrons):
              1          2          3          4          5          6
     1  C    4.904540   0.541130  -0.035357   0.572963  -0.039971  -0.058784
     2  C    0.541130   4.981828  -0.046584  -0.043025   0.555100  -0.034659
     3  C   -0.035357  -0.046584   4.956919  -0.017779   0.581613   0.482453
     4  C    0.572963  -0.043025  -0.017779   4.549044  -0.025227   0.518792
     5  C   -0.039971   0.555100   0.581613  -0.025227   4.479432  -0.038199
     6  C   -0.058784  -0.034659   0.482453   0.518792  -0.038199   5.246167
     7  C    0.003864   0.000000   0.002494  -0.109956  -0.000065  -0.049454
     8  C   -0.000091   0.000002  -0.000009   0.004913   0.000000   0.002784
     9  C   -0.000056   0.001852  -0.000583   0.000004  -0.022045   0.000188
    10  C    0.000000   0.000000   0.000000   0.000000   0.000001   0.000000
    11  C    0.000000  -0.000216  -0.000013   0.000000   0.006155  -0.000005
    12  C    0.000000   0.000004   0.000006   0.000000  -0.000170   0.000000
    13  N   -0.046161   0.002907   0.006844   0.394450  -0.000367  -0.091917
    14  N    0.003130  -0.055203  -0.047738   0.000184   0.210615   0.003784
    15  O   -0.000008   0.000050  -0.003252   0.000007   0.004425   0.000072
    16  O    0.000000   0.000000   0.000000   0.000000   0.000000   0.000000
    17  O    0.000000   0.000000   0.000000   0.000000   0.000000   0.000000
    18  S    0.004999   0.000194  -0.044452  -0.069626   0.001670   0.273233
    19  H    0.000015  -0.001383   0.002235  -0.000001  -0.024281  -0.000047
    20  H    0.000000   0.000000   0.000001   0.000000   0.000003   0.000000
    21  H    0.000000   0.000000  -0.000001   0.000000   0.000003   0.000000
    22  H    0.000000  -0.000044   0.000006   0.000000   0.000294   0.000000
    23  H    0.000000   0.000004  -0.000010   0.000000  -0.000070  -0.000001
    24  H    0.000119   0.002860   0.368501   0.000984  -0.012939  -0.031896
    25  H   -0.024562   0.376496   0.003121   0.001512  -0.032493   0.000210
    26  H    0.373135  -0.031050  -0.000105  -0.026670   0.001873   0.004617
    27  H    0.000003   0.000000  -0.000001  -0.000115   0.000000   0.000027
    28  H    0.000004   0.000000  -0.000001  -0.000108   0.000000   0.000024
    29  H   -0.000016   0.000000   0.000000   0.000271   0.000000  -0.000054
              7          8          9         10         11         12
     1  C    0.003864  -0.000091  -0.000056   0.000000   0.000000   0.000000
     2  C    0.000000   0.000002   0.001852   0.000000  -0.000216   0.000004
     3  C    0.002494  -0.000009  -0.000583   0.000000  -0.000013   0.000006
     4  C   -0.109956   0.004913   0.000004   0.000000   0.000000   0.000000
     5  C   -0.000065   0.000000  -0.022045   0.000001   0.006155  -0.000170
     6  C   -0.049454   0.002784   0.000188   0.000000  -0.000005   0.000000
     7  C    5.002015   0.323580   0.000000   0.000000   0.000000   0.000000
     8  C    0.323580   5.142522   0.000000   0.000000   0.000000   0.000000
     9  C    0.000000   0.000000   4.283757   0.001514   0.312120  -0.029061
    10  C    0.000000   0.000000   0.001514   3.994983  -0.029746   0.279620
    11  C    0.000000   0.000000   0.312120  -0.029746   5.454020   0.180726
    12  C    0.000000   0.000000  -0.029061   0.279620   0.180726   5.532897
    13  N    0.556294  -0.059358   0.000000   0.000000   0.000000   0.000000
    14  N    0.000000   0.000000   0.216526  -0.000045  -0.100457   0.003606
    15  O    0.000000   0.000000   0.566532  -0.000217  -0.073999  -0.004039
    16  O    0.000000   0.000000   0.000434   0.539601   0.008966  -0.124534
    17  O    0.000000   0.000000  -0.000024   0.501726   0.004877  -0.119131
    18  S    0.299783  -0.055087  -0.000006   0.000000   0.000000   0.000000
    19  H    0.000000   0.000000  -0.015064   0.000005  -0.000215   0.000238
    20  H    0.000000   0.000000   0.000496  -0.020865  -0.063178   0.390664
    21  H    0.000000   0.000000   0.000136  -0.016971  -0.048393   0.374509
    22  H    0.000000   0.000000  -0.061198   0.000431   0.384428  -0.037339
    23  H    0.000000   0.000000  -0.027085  -0.002151   0.376494  -0.034911
    24  H   -0.000005   0.000000   0.003698   0.000000  -0.000037   0.000002
    25  H    0.000003   0.000000   0.000005   0.000000   0.000001   0.000000
    26  H   -0.000008  -0.000007   0.000001   0.000000   0.000000   0.000000
    27  H   -0.041302   0.386984   0.000000   0.000000   0.000000   0.000000
    28  H   -0.041372   0.386619   0.000000   0.000000   0.000000   0.000000
    29  H   -0.039840   0.390067   0.000000   0.000000   0.000000   0.000000
             13         14         15         16         17         18
     1  C   -0.046161   0.003130  -0.000008   0.000000   0.000000   0.004999
     2  C    0.002907  -0.055203   0.000050   0.000000   0.000000   0.000194
     3  C    0.006844  -0.047738  -0.003252   0.000000   0.000000  -0.044452
     4  C    0.394450   0.000184   0.000007   0.000000   0.000000  -0.069626
     5  C   -0.000367   0.210615   0.004425   0.000000   0.000000   0.001670
     6  C   -0.091917   0.003784   0.000072   0.000000   0.000000   0.273233
     7  C    0.556294   0.000000   0.000000   0.000000   0.000000   0.299783
     8  C   -0.059358   0.000000   0.000000   0.000000   0.000000  -0.055087
     9  C    0.000000   0.216526   0.566532   0.000434  -0.000024  -0.000006
    10  C    0.000000  -0.000045  -0.000217   0.539601   0.501726   0.000000
    11  C    0.000000  -0.100457  -0.073999   0.008966   0.004877   0.000000
    12  C    0.000000   0.003606  -0.004039  -0.124534  -0.119131   0.000000
    13  N    6.843489  -0.000001   0.000000   0.000000   0.000000  -0.080721
    14  N   -0.000001   7.442542  -0.096352  -0.000002   0.000000  -0.000062
    15  O    0.000000  -0.096352   8.226260   0.000007  -0.000002  -0.000005
    16  O    0.000000  -0.000002   0.000007   8.380497  -0.098402   0.000000
    17  O    0.000000   0.000000  -0.000002  -0.098402   8.529594   0.000000
    18  S   -0.080721  -0.000062  -0.000005   0.000000   0.000000  15.389091
    19  H    0.000000   0.322517   0.002174   0.000001   0.000000   0.000002
    20  H    0.000000   0.000798   0.005475   0.001561   0.003847   0.000000
    21  H    0.000000   0.000078   0.000256   0.001306   0.000313   0.000000
    22  H    0.000000   0.004370   0.003190  -0.000181  -0.000043   0.000000
    23  H    0.000000   0.001511   0.000131   0.017368   0.000374   0.000000
    24  H   -0.000064  -0.005561   0.007073   0.000000   0.000000  -0.000660
    25  H   -0.000055  -0.002007   0.000000   0.000000   0.000000   0.000014
    26  H    0.000572  -0.000075   0.000000   0.000000   0.000000  -0.000117
    27  H    0.000414   0.000000   0.000000   0.000000   0.000000   0.001146
    28  H    0.000425   0.000000   0.000000   0.000000   0.000000   0.001123
    29  H    0.004352   0.000000   0.000000   0.000000   0.000000   0.002928
             19         20         21         22         23         24
     1  C    0.000015   0.000000   0.000000   0.000000   0.000000   0.000119
     2  C   -0.001383   0.000000   0.000000  -0.000044   0.000004   0.002860
     3  C    0.002235   0.000001  -0.000001   0.000006  -0.000010   0.368501
     4  C   -0.000001   0.000000   0.000000   0.000000   0.000000   0.000984
     5  C   -0.024281   0.000003   0.000003   0.000294  -0.000070  -0.012939
     6  C   -0.000047   0.000000   0.000000   0.000000  -0.000001  -0.031896
     7  C    0.000000   0.000000   0.000000   0.000000   0.000000  -0.000005
     8  C    0.000000   0.000000   0.000000   0.000000   0.000000   0.000000
     9  C   -0.015064   0.000496   0.000136  -0.061198  -0.027085   0.003698
    10  C    0.000005  -0.020865  -0.016971   0.000431  -0.002151   0.000000
    11  C   -0.000215  -0.063178  -0.048393   0.384428   0.376494  -0.000037
    12  C    0.000238   0.390664   0.374509  -0.037339  -0.034911   0.000002
    13  N    0.000000   0.000000   0.000000   0.000000   0.000000  -0.000064
    14  N    0.322517   0.000798   0.000078   0.004370   0.001511  -0.005561
    15  O    0.002174   0.005475   0.000256   0.003190   0.000131   0.007073
    16  O    0.000001   0.001561   0.001306  -0.000181   0.017368   0.000000
    17  O    0.000000   0.003847   0.000313  -0.000043   0.000374   0.000000
    18  S    0.000002   0.000000   0.000000   0.000000   0.000000  -0.000660
    19  H    0.316689   0.000044  -0.000122   0.002887  -0.000005  -0.000076
    20  H    0.000044   0.491809  -0.016867   0.003615   0.001843   0.000000
    21  H   -0.000122  -0.016867   0.565519  -0.006648   0.003852   0.000000
    22  H    0.002887   0.003615  -0.006648   0.594287  -0.018101  -0.000009
    23  H   -0.000005   0.001843   0.003852  -0.018101   0.438210   0.000007
    24  H   -0.000076   0.000000   0.000000  -0.000009   0.000007   0.409765
    25  H    0.002780   0.000000   0.000000  -0.000007   0.000000  -0.000088
    26  H   -0.000004   0.000000   0.000000   0.000000   0.000000   0.000008
    27  H    0.000000   0.000000   0.000000   0.000000   0.000000   0.000000
    28  H    0.000000   0.000000   0.000000   0.000000   0.000000   0.000000
    29  H    0.000000   0.000000   0.000000   0.000000   0.000000   0.000000
             25         26         27         28         29
     1  C   -0.024562   0.373135   0.000003   0.000004  -0.000016
     2  C    0.376496  -0.031050   0.000000   0.000000   0.000000
     3  C    0.003121  -0.000105  -0.000001  -0.000001   0.000000
     4  C    0.001512  -0.026670  -0.000115  -0.000108   0.000271
     5  C   -0.032493   0.001873   0.000000   0.000000   0.000000
     6  C    0.000210   0.004617   0.000027   0.000024  -0.000054
     7  C    0.000003  -0.000008  -0.041302  -0.041372  -0.039840
     8  C    0.000000  -0.000007   0.386984   0.386619   0.390067
     9  C    0.000005   0.000001   0.000000   0.000000   0.000000
    10  C    0.000000   0.000000   0.000000   0.000000   0.000000
    11  C    0.000001   0.000000   0.000000   0.000000   0.000000
    12  C    0.000000   0.000000   0.000000   0.000000   0.000000
    13  N   -0.000055   0.000572   0.000414   0.000425   0.004352
    14  N   -0.002007  -0.000075   0.000000   0.000000   0.000000
    15  O    0.000000   0.000000   0.000000   0.000000   0.000000
    16  O    0.000000   0.000000   0.000000   0.000000   0.000000
    17  O    0.000000   0.000000   0.000000   0.000000   0.000000
    18  S    0.000014  -0.000117   0.001146   0.001123   0.002928
    19  H    0.002780  -0.000004   0.000000   0.000000   0.000000
    20  H    0.000000   0.000000   0.000000   0.000000   0.000000
    21  H    0.000000   0.000000   0.000000   0.000000   0.000000
    22  H   -0.000007   0.000000   0.000000   0.000000   0.000000
    23  H    0.000000   0.000000   0.000000   0.000000   0.000000
    24  H   -0.000088   0.000008   0.000000   0.000000   0.000000
    25  H    0.473754  -0.001963   0.000000   0.000000   0.000000
    26  H   -0.001963   0.468501   0.000000   0.000000   0.000003
    27  H    0.000000   0.000000   0.514925  -0.027232  -0.020284
    28  H    0.000000   0.000000  -0.027232   0.517761  -0.020431
    29  H    0.000000   0.000003  -0.020284  -0.020431   0.473905
 Mulliken atomic charges:
              1
     1  C   -0.198895
     2  C   -0.250264
     3  C   -0.208307
     4  C    0.249383
     5  C    0.354643
     6  C   -0.227336
     7  C    0.093970
     8  C   -0.522920
     9  C    0.767858
    10  C    0.752114
    11  C   -0.411528
    12  C   -0.413087
    13  N   -0.531102
    14  N   -0.902158
    15  O   -0.637777
    16  O   -0.726621
    17  O   -0.823129
    18  S    0.276552
    19  H    0.391611
    20  H    0.200752
    21  H    0.143029
    22  H    0.130063
    23  H    0.242540
    24  H    0.258318
    25  H    0.203279
    26  H    0.211289
    27  H    0.185435
    28  H    0.183189
    29  H    0.209099
 Sum of Mulliken atomic charges =  -1.00000
 Mulliken charges with hydrogens summed into heavy atoms:
              1
     1  C    0.012394
     2  C   -0.046985
     3  C    0.050011
     4  C    0.249383
     5  C    0.354643
     6  C   -0.227336
     7  C    0.093970
     8  C    0.054803
     9  C    0.767858
    10  C    0.752114
    11  C   -0.038925
    12  C   -0.069306
    13  N   -0.531102
    14  N   -0.510547
    15  O   -0.637777
    16  O   -0.726621
    17  O   -0.823129
    18  S    0.276552
 Sum of Mulliken charges with hydrogens summed into heavy atoms =  -1.00000
 DipInt: DoE/N= T F RetVal/Mat= T F Init=T NMatP=  1 IDeriv=0 Min/MaxMlt=  0  4
 Entering OneElI...
 OneElI was handed    33327874 working-precision words.
 Multipole integrals L=0 to 4 MinM= 0 MaxM= 0.
 Requested accuracy = 0.1000D-12
 PrsmSu:  NPrtUS=   1 ThrOK=F IAlg=1 NPAlg=1 LenDen=           0.
 Prism:   IPart=     0 DynPar=F LinDyn=F Incr=          32.
 PRISM was handed    33009231 working-precision words and  3247 shell-pairs
 IPart=  0 NShTot=        3247 NBatch=          53 AvBLen=        61.3
 PrSmSu:  NxtVal=             33.
 Electronic moments (au):
       -138.00000000         10.72983490          2.07917059         -1.19669159
      -7779.02280482       -703.15087411       -222.28298055        -26.22209356
          7.72111507         -0.68556122      14044.43783567       -722.61550303
        -15.34132606      -1769.13603826       6081.58760329      -1324.88481501
        962.84376089        110.12788568         47.01027553         11.64344399
    -814625.21535887     -10003.22252919      -1222.46744590      -5775.91806470
       5346.80925950       -585.76267497       -208.47681130        118.17982587
         27.36144396     -28035.74004521     -17187.68407423       -908.37189482
      -1971.16338743       -635.68972812       -809.24844734
 Electronic spatial extent (au):  <R**2>=           8704.4567
 DipInt: DoE/N= F T RetVal/Mat= T F Init=T NMatP=  1 IDeriv=0 Min/MaxMlt=  0  4
 Nuclear    moments (au):
        137.00000000          0.00000000          0.00000000          0.00000000
       7556.60260048        620.53809710        129.56944106          0.00000000
          0.00000000          0.00000000     -12278.25310907        748.41575200
         16.43214968       1773.65666467      -5927.14570482       1245.85167311
       -914.41945876       -107.79991920        -49.20957953          0.09511866
     765963.95399591       7636.76070451        439.62615714       2596.74557810
      -4208.52186195        582.41734539        196.49571337        -90.46586879
        -38.19658286      22728.16316437      11618.87374973        329.05823580
       1788.27981748        634.94395487        713.38468396
 Total      moments (au):
         -1.00000000         10.72983490          2.07917059         -1.19669159
       -222.42020434        -82.61277701        -92.71353949        -26.22209356
          7.72111507         -0.68556122       1766.18472659         25.80024897
          1.09082362          4.52062641        154.44189847        -79.03314190
         48.42430213          2.32796648         -2.19930400         11.73856266
     -48661.26136297      -2366.46182468       -782.84128876      -3179.17248660
       1138.28739755         -3.34532958        -11.98109793         27.71395708
        -10.83513890      -5307.57688083      -5568.81032451       -579.31365902
       -182.88356995         -0.74577325        -95.86376337
 Traceless Quadrup. (au):
        -89.83803073         49.96939660         39.86863413        -26.22209356
          7.72111507         -0.68556122
 Charge=             -1.0000 electrons
 Dipole moment (field-independent basis, Debye):
    X=             27.2725    Y=              5.2847    Z=             -3.0417  Tot=             27.9458
 Quadrupole moment (field-independent basis, Debye-Ang):
   XX=           -299.1628   YY=           -111.1170   ZZ=           -124.7029
   XY=            -35.2696   XZ=             10.3852   YZ=             -0.9221
 Traceless Quadrupole moment (field-independent basis, Debye-Ang):
   XX=           -120.8352   YY=             67.2105   ZZ=             53.6247
   XY=            -35.2696   XZ=             10.3852   YZ=             -0.9221
 Octapole moment (field-independent basis, Debye-Ang**2):
  XXX=           1257.1022  YYY=             18.3636  ZZZ=              0.7764  XYY=              3.2176
  XXY=            109.9258  XXZ=            -56.2527  XZZ=             34.4666  YZZ=              1.6570
  YYZ=             -1.5654  XYZ=              8.3551
 Hexadecapole moment (field-independent basis, Debye-Ang**3):
 XXXX=         -18328.1632 YYYY=           -891.3229 ZZZZ=           -294.8555 XXXY=          -1197.4287
 XXXZ=            428.7336 YYYX=             -1.2600 YYYZ=             -4.5127 ZZZX=             10.4384
 ZZZY=             -4.0810 XXYY=          -1999.0878 XXZZ=          -2097.4809 YYZZ=           -218.1973
 XXYZ=            -68.8827 YYXZ=             -0.2809 ZZXY=            -36.1069
 N-N= 1.297175228852D+03 E-N=-5.417915231267D+03  KE= 1.190093951194D+03
 Entering OneElI...
 OneElI was handed    33151621 working-precision words.
 Calculate electrostatic properties
    NBasis =   296  MinDer = 0  MaxDer = 0
    NGrid  =    29  NMatD  =   1
 Requested accuracy = 0.1000D-12
 PrsmSu:  NPrtUS=   1 ThrOK=F IAlg=1 NPAlg=1 LenDen=           0.
 Prism:   IPart=     0 DynPar=F LinDyn=F Incr=         512.
 PRISM was handed    32862191 working-precision words and  2867 shell-pairs
 IPart=  0 NShTot=       83143 NBatch=        2867 AvBLen=        29.0
 PrSmSu:  NxtVal=            513.
 --------------------------------------------------------
       Center         ----      EFG at Nuclei      ----
                      3XX-RR        3YY-RR        3ZZ-RR
 --------------------------------------------------------
     1   Atom        0.186609      0.124701     -0.311310
     2   Atom        0.153244      0.090586     -0.243830
     3   Atom        0.102383      0.137446     -0.239829
     4   Atom       -0.023926      0.206636     -0.182710
     5   Atom       -0.068891      0.318054     -0.249163
     6   Atom        0.197545     -0.021262     -0.176283
     7   Atom        0.162756      0.142696     -0.305453
     8   Atom       -0.080499      0.059175      0.021323
     9   Atom        0.256185     -0.082712     -0.173473
    10   Atom        0.097400     -0.314361      0.216960
    11   Atom       -0.024793      0.030275     -0.005481
    12   Atom        0.005302      0.020222     -0.025524
    13   Atom        0.167302      0.371756     -0.539058
    14   Atom       -0.594912     -0.222582      0.817494
    15   Atom        1.350040     -0.427983     -0.922057
    16   Atom        0.958421     -0.429304     -0.529116
    17   Atom        0.037605      0.292630     -0.330234
    18   Atom       -2.054275      0.061659      1.992617
    19   Atom        0.084343     -0.232062      0.147719
    20   Atom        0.091138      0.121605     -0.212743
    21   Atom        0.122661     -0.271501      0.148840
    22   Atom        0.135886     -0.101636     -0.034250
    23   Atom        0.134172     -0.169010      0.034839
    24   Atom        0.035477     -0.194296      0.158819
    25   Atom        0.028719     -0.199380      0.170661
    26   Atom        0.036951     -0.195946      0.158995
    27   Atom        0.130800     -0.022618     -0.108183
    28   Atom        0.107901      0.052538     -0.160439
    29   Atom       -0.014828     -0.123821      0.138649
 --------------------------------------------------------
                        XY            XZ            YZ
 --------------------------------------------------------
     1   Atom       -0.016700      0.048317      0.039649
     2   Atom        0.021021      0.019591      0.011952
     3   Atom        0.027448      0.042674      0.017429
     4   Atom       -0.036717      0.012237      0.036072
     5   Atom        0.012171      0.021084      0.034343
     6   Atom        0.181005      0.055896      0.034871
     7   Atom       -0.175995      0.027194      0.026492
     8   Atom        0.027779     -0.006483      0.005582
     9   Atom        0.038956      0.331678     -0.385118
    10   Atom        0.271921     -0.136331      0.272249
    11   Atom        0.022087     -0.091214      0.057408
    12   Atom        0.081515      0.117624     -0.011043
    13   Atom        0.616030      0.127411      0.148163
    14   Atom        0.010118     -0.073801      0.531760
    15   Atom        0.853704      0.340011      0.300509
    16   Atom        0.402987     -0.770291     -0.423621
    17   Atom        0.568306      1.163940      0.513193
    18   Atom        0.160959     -0.373540     -0.179056
    19   Atom        0.180616     -0.097918      0.230495
    20   Atom        0.033201     -0.124948      0.092912
    21   Atom        0.093728      0.004124      0.006887
    22   Atom       -0.014492      0.003253      0.217769
    23   Atom       -0.047267     -0.030168     -0.178413
    24   Atom       -0.182210     -0.036840     -0.055582
    25   Atom        0.196938      0.003350     -0.018701
    26   Atom       -0.194265     -0.030681     -0.052420
    27   Atom        0.030313     -0.036021      0.210973
    28   Atom        0.054469      0.092608     -0.174372
    29   Atom       -0.200242     -0.034388     -0.044852
 --------------------------------------------------------


 ---------------------------------------------------------------------------------
              Nuclear Quadrupole in Principal Axis System
 ---------------------------------------------------------------------------------

       Atom             a.u.   MegaHertz   Gauss  10(-4) cm-1        Axes

              Baa    -0.3198   -42.908   -15.311   -14.312 -0.0976 -0.0921  0.9910
     1 C(13)  Bbb     0.1260    16.907     6.033     5.640  0.1825  0.9772  0.1088
              Bcc     0.1938    26.000     9.278     8.673  0.9783 -0.1915  0.0786
 
              Baa    -0.2451   -32.897   -11.738   -10.973 -0.0474 -0.0326  0.9983
     2 C(13)  Bbb     0.0843    11.310     4.036     3.773 -0.2960  0.9550  0.0171
              Bcc     0.1609    21.586     7.703     7.200  0.9540  0.2947  0.0549
 
              Baa    -0.2456   -32.955   -11.759   -10.993 -0.1188 -0.0366  0.9922
     3 C(13)  Bbb     0.0898    12.044     4.298     4.018  0.8504 -0.5196  0.0826
              Bcc     0.1558    20.910     7.461     6.975  0.5126  0.8536  0.0929
 
              Baa    -0.1875   -25.165    -8.979    -8.394 -0.0964 -0.0996  0.9903
     4 C(13)  Bbb    -0.0277    -3.715    -1.326    -1.239  0.9844  0.1374  0.1097
              Bcc     0.2152    28.880    10.305     9.633 -0.1470  0.9855  0.0848
 
              Baa    -0.2535   -34.014   -12.137   -11.346 -0.1096 -0.0573  0.9923
     5 C(13)  Bbb    -0.0671    -9.006    -3.214    -3.004  0.9934 -0.0410  0.1073
              Bcc     0.3206    43.020    15.351    14.350  0.0345  0.9975  0.0614
 
              Baa    -0.1854   -24.872    -8.875    -8.297 -0.0942 -0.1065  0.9898
     6 C(13)  Bbb    -0.1232   -16.535    -5.900    -5.516 -0.4970  0.8665  0.0459
              Bcc     0.3086    41.408    14.775    13.812  0.8626  0.4876  0.1345
 
              Baa    -0.3105   -41.662   -14.866   -13.897 -0.0918 -0.0936  0.9914
     7 C(13)  Bbb    -0.0185    -2.488    -0.888    -0.830  0.6803  0.7211  0.1311
              Bcc     0.3290    44.150    15.754    14.727  0.7271 -0.6865  0.0025
 
              Baa    -0.0863   -11.585    -4.134    -3.864  0.9794 -0.1896  0.0688
     8 C(13)  Bbb     0.0214     2.874     1.025     0.959 -0.0859 -0.0835  0.9928
              Bcc     0.0649     8.711     3.108     2.906  0.1825  0.9783  0.0981
 
              Baa    -0.6071   -81.473   -29.072   -27.176 -0.3155  0.5768  0.7535
     9 C(13)  Bbb     0.1174    15.755     5.622     5.255  0.5779  0.7466 -0.3295
              Bcc     0.4897    65.718    23.450    21.921  0.7526 -0.3315  0.5689
 
              Baa    -0.5677   -76.179   -27.183   -25.411 -0.4154  0.8346 -0.3618
    10 C(13)  Bbb     0.2326    31.210    11.137    10.411  0.8940  0.4481  0.0073
              Bcc     0.3351    44.969    16.046    15.000 -0.1682  0.3204  0.9322
 
              Baa    -0.1265   -16.976    -6.058    -5.663  0.6681 -0.3370  0.6634
    11 C(13)  Bbb     0.0336     4.505     1.607     1.503  0.5773  0.7973 -0.1763
              Bcc     0.0929    12.471     4.450     4.160 -0.4695  0.5008  0.7272
 
              Baa    -0.1526   -20.474    -7.306    -6.829  0.6696 -0.3575 -0.6510
    12 C(13)  Bbb     0.0156     2.088     0.745     0.697 -0.1239  0.8105 -0.5725
              Bcc     0.1370    18.385     6.560     6.133  0.7323  0.4640  0.4984
 
              Baa    -0.5652   -21.800    -7.779    -7.272 -0.0908 -0.0970  0.9911
    13 N(14)  Bbb    -0.3549   -13.688    -4.884    -4.566  0.7621 -0.6474  0.0064
              Bcc     0.9202    35.488    12.663    11.838  0.6410  0.7560  0.1327
 
              Baa    -0.6064   -23.388    -8.345    -7.801  0.9723 -0.1978  0.1243
    14 N(14)  Bbb    -0.4373   -16.867    -6.019    -5.626  0.2303  0.9008 -0.3682
              Bcc     1.0437    40.255    14.364    13.428 -0.0391  0.3866  0.9214
 
              Baa    -1.0665    77.170    27.536    25.741  0.0427 -0.4716  0.8808
    15 O(17)  Bbb    -0.6954    50.322    17.956    16.786 -0.4068  0.7970  0.4464
              Bcc     1.7619  -127.492   -45.492   -42.527  0.9125  0.3774  0.1579
 
              Baa    -0.9828    71.114    25.375    23.721  0.2374  0.4755  0.8471
    16 O(17)  Bbb    -0.4584    33.173    11.837    11.065 -0.4269  0.8344 -0.3487
              Bcc     1.4412  -104.287   -37.212   -34.787  0.8726  0.2788 -0.4011
 
              Baa    -1.3250    95.877    34.211    31.981 -0.6457 -0.0153  0.7634
    17 O(17)  Bbb    -0.1874    13.562     4.839     4.524 -0.4143  0.8469 -0.3334
              Bcc     1.5124  -109.439   -39.051   -36.505  0.6414  0.5316  0.5532
 
              Baa    -2.0981   -86.020   -30.694   -28.693  0.9939 -0.0668  0.0878
    18 S(33)  Bbb     0.0525     2.152     0.768     0.718  0.0577  0.9930  0.1027
              Bcc     2.0456    83.869    29.926    27.976 -0.0941 -0.0971  0.9908
 
              Baa    -0.4237  -226.052   -80.661   -75.403 -0.3745  0.8358 -0.4014
    19 H(1)   Bbb     0.1659    88.529    31.589    29.530  0.9206  0.3869 -0.0534
              Bcc     0.2577   137.523    49.071    45.873 -0.1106  0.3895  0.9144
 
              Baa    -0.2817  -150.281   -53.624   -50.128  0.3276 -0.2377  0.9144
    20 H(1)   Bbb     0.1359    72.518    25.876    24.189  0.9421  0.0086 -0.3353
              Bcc     0.1457    77.763    27.748    25.939  0.0718  0.9713  0.2267
 
              Baa    -0.2927  -156.187   -55.731   -52.098 -0.2200  0.9754 -0.0132
    21 H(1)   Bbb     0.1403    74.840    26.705    24.964  0.8231  0.1783 -0.5392
              Bcc     0.1525    81.347    29.027    27.134  0.5236  0.1294  0.8421
 
              Baa    -0.2887  -154.041   -54.966   -51.383  0.0309  0.7592 -0.6501
    22 H(1)   Bbb     0.1337    71.338    25.455    23.796  0.9368  0.2047  0.2836
              Bcc     0.1550    82.703    29.510    27.587 -0.3484  0.6178  0.7049
 
              Baa    -0.2801  -149.468   -53.334   -49.857  0.1340  0.8567  0.4981
    23 H(1)   Bbb     0.1372    73.196    26.118    24.415  0.4527 -0.5000  0.7382
              Bcc     0.1430    76.272    27.216    25.442  0.8815  0.1266 -0.4549
 
              Baa    -0.3044  -162.388   -57.944   -54.167  0.4797  0.8659  0.1421
    24 H(1)   Bbb     0.1351    72.101    25.727    24.050  0.8527 -0.4982  0.1572
              Bcc     0.1692    90.287    32.217    30.117 -0.2069 -0.0457  0.9773
 
              Baa    -0.3136  -167.305   -59.699   -55.807 -0.4986  0.8660  0.0369
    25 H(1)   Bbb     0.1409    75.171    26.823    25.074  0.8517  0.4816  0.2067
              Bcc     0.1727    92.134    32.876    30.733 -0.1612 -0.1345  0.9777
 
              Baa    -0.3138  -167.425   -59.741   -55.847  0.4891  0.8629  0.1274
    26 H(1)   Bbb     0.1470    78.410    27.979    26.155  0.8665 -0.4974  0.0425
              Bcc     0.1668    89.014    31.763    29.692 -0.1001 -0.0896  0.9909
 
              Baa    -0.2860  -152.587   -54.447   -50.898  0.1122 -0.6291  0.7692
    27 H(1)   Bbb     0.1361    72.609    25.909    24.220  0.9925  0.0337 -0.1173
              Bcc     0.1499    79.979    28.538    26.678  0.0478  0.7766  0.6282
 
              Baa    -0.2875  -153.371   -54.727   -51.159 -0.2622  0.4733  0.8410
    28 H(1)   Bbb     0.1368    72.967    26.037    24.339  0.9535 -0.0070  0.3013
              Bcc     0.1507    80.404    28.690    26.820  0.1485  0.8809 -0.4495
 
              Baa    -0.2844  -151.743   -54.146   -50.616  0.6019  0.7875  0.1324
    29 H(1)   Bbb     0.1382    73.737    26.311    24.596  0.7936 -0.6083  0.0109
              Bcc     0.1462    78.006    27.834    26.020 -0.0891 -0.0986  0.9911
 

 ---------------------------------------------------------------------------------

 No NMR shielding tensors so no spin-rotation constants.
 Leave Link  601 at Tue Jun 21 17:08:30 2016, MaxMem=   33554432 cpu:       0.4
 Merz-Kollman atomic radii used.
 Atom Element Radius
    1     6    1.50
    2     6    1.50
    3     6    1.50
    4     6    1.50
    5     6    1.50
    6     6    1.50
    7     6    1.50
    8     6    1.50
    9     6    1.50
   10     6    1.50
   11     6    1.50
   12     6    1.50
   13     7    1.50
   14     7    1.50
   15     8    1.40
   16     8    1.40
   17     8    1.40
   18    16    1.75
   19     1    1.20
   20     1    1.20
   21     1    1.20
   22     1    1.20
   23     1    1.20
   24     1    1.20
   25     1    1.20
   26     1    1.20
   27     1    1.20
   28     1    1.20
   29     1    1.20
 Generate VDW surfaces: Layer= 4 Dens= 6 Start= 1.400 Inc= 0.200

 **********************************************************************

            Electrostatic Properties Using The SCF Density

 **********************************************************************

       Atomic Center    1 is at   2.351911  2.132257  0.107679
       Atomic Center    2 is at   0.970353  2.138597 -0.025391
       Atomic Center    3 is at   0.965070 -0.273788 -0.256607
       Atomic Center    4 is at   3.055378  0.927671  0.062931
       Atomic Center    5 is at   0.267972  0.948018 -0.210905
       Atomic Center    6 is at   2.341423 -0.259779 -0.114382
       Atomic Center    7 is at   4.753203 -0.463397  0.094565
       Atomic Center    8 is at   6.180971 -0.915980  0.183746
       Atomic Center    9 is at  -2.045739  0.032184  0.012400
       Atomic Center   10 is at  -5.769078 -0.420224  0.056168
       Atomic Center   11 is at  -3.371725  0.119025 -0.672914
       Atomic Center   12 is at  -4.511677  0.351604  0.320716
       Atomic Center   13 is at   4.433807  0.777733  0.184183
       Atomic Center   14 is at  -1.154416  1.004075 -0.344114
       Atomic Center   15 is at  -1.784057 -0.860446  0.839748
       Atomic Center   16 is at  -6.007445 -0.996342 -1.002095
       Atomic Center   17 is at  -6.602444 -0.403062  1.063517
       Atomic Center   18 is at   3.442520 -1.600928 -0.137724
       Atomic Center   19 is at  -1.535667  1.839861 -0.739545
       Atomic Center   20 is at  -4.150168  0.074711  1.322182
       Atomic Center   21 is at  -4.762567  1.422241  0.304165
       Atomic Center   22 is at  -3.348846  0.952884 -1.389361
       Atomic Center   23 is at  -3.556078 -0.822183 -1.211637
       Atomic Center   24 is at   0.433576 -1.207655 -0.400093
       Atomic Center   25 is at   0.431153  3.078440  0.016014
       Atomic Center   26 is at   2.885917  3.065537  0.246031
       Atomic Center   27 is at   6.294660 -1.604767  1.034422
       Atomic Center   28 is at   6.460786 -1.432435 -0.746006
       Atomic Center   29 is at   6.834379 -0.042773  0.329531
      ESP Fit Center   30 is at   2.351911  2.132257  2.207679
      ESP Fit Center   31 is at   2.761601  2.132257  2.167328
      ESP Fit Center   32 is at   2.556756  2.487059  2.167328
      ESP Fit Center   33 is at   2.147066  2.487059  2.167328
      ESP Fit Center   34 is at   1.942222  2.132257  2.167328
      ESP Fit Center   35 is at   2.147066  1.777455  2.167328
      ESP Fit Center   36 is at   2.556756  1.777455  2.167328
      ESP Fit Center   37 is at   3.155547  2.132257  2.047826
      ESP Fit Center   38 is at   3.047880  2.534075  2.047826
      ESP Fit Center   39 is at   2.753729  2.828225  2.047826
      ESP Fit Center   40 is at   2.351911  2.935892  2.047826
      ESP Fit Center   41 is at   1.950094  2.828225  2.047826
      ESP Fit Center   42 is at   1.655943  2.534075  2.047826
      ESP Fit Center   43 is at   1.548276  2.132257  2.047826
      ESP Fit Center   44 is at   1.655943  1.730439  2.047826
      ESP Fit Center   45 is at   1.950094  1.436288  2.047826
      ESP Fit Center   46 is at   2.351911  1.328622  2.047826
      ESP Fit Center   47 is at   3.047880  1.730439  2.047826
      ESP Fit Center   48 is at   3.518609  2.132257  1.853765
      ESP Fit Center   49 is at   3.439824  2.553717  1.853765
      ESP Fit Center   50 is at   2.032629  3.254417  1.853765
      ESP Fit Center   51 is at   1.648819  3.063302  1.853765
      ESP Fit Center   52 is at   1.648819  1.201212  1.853765
      ESP Fit Center   53 is at   3.776686  2.550608  1.592603
      ESP Fit Center   54 is at   1.735052  3.482992  1.592603
      ESP Fit Center   55 is at   1.732741  3.764876  1.274376
      ESP Fit Center   56 is at   4.047259  2.550123 -1.059019
      ESP Fit Center   57 is at   2.141444  3.865612 -1.059019
      ESP Fit Center   58 is at   3.776686  2.550608 -1.377245
      ESP Fit Center   59 is at   3.601109  2.935068 -1.377245
      ESP Fit Center   60 is at   3.324330  3.254488 -1.377245
      ESP Fit Center   61 is at   2.563238  3.602067 -1.377245
      ESP Fit Center   62 is at   2.140585  3.602067 -1.377245
      ESP Fit Center   63 is at   3.518609  2.132257 -1.638407
      ESP Fit Center   64 is at   3.439824  2.553717 -1.638407
      ESP Fit Center   65 is at   3.214111  2.918256 -1.638407
      ESP Fit Center   66 is at   2.871953  3.176642 -1.638407
      ESP Fit Center   67 is at   2.459561  3.293978 -1.638407
      ESP Fit Center   68 is at   2.032629  3.254417 -1.638407
      ESP Fit Center   69 is at   3.155547  2.132257 -1.832468
      ESP Fit Center   70 is at   3.047880  2.534075 -1.832468
      ESP Fit Center   71 is at   2.753729  2.828225 -1.832468
      ESP Fit Center   72 is at   2.351911  2.935892 -1.832468
      ESP Fit Center   73 is at   1.950094  2.828225 -1.832468
      ESP Fit Center   74 is at   1.950094  1.436288 -1.832468
      ESP Fit Center   75 is at   2.761601  2.132257 -1.951970
      ESP Fit Center   76 is at   2.556756  2.487059 -1.951970
      ESP Fit Center   77 is at   2.147066  2.487059 -1.951970
      ESP Fit Center   78 is at   1.942222  2.132257 -1.951970
      ESP Fit Center   79 is at   2.147066  1.777455 -1.951970
      ESP Fit Center   80 is at   2.556756  1.777455 -1.951970
      ESP Fit Center   81 is at   2.351911  2.132257 -1.992321
      ESP Fit Center   82 is at   0.970353  2.138597  2.074609
      ESP Fit Center   83 is at   1.380043  2.138597  2.034258
      ESP Fit Center   84 is at   1.175198  2.493398  2.034258
      ESP Fit Center   85 is at   0.765508  2.493398  2.034258
      ESP Fit Center   86 is at   0.560663  2.138597  2.034258
      ESP Fit Center   87 is at   0.765508  1.783795  2.034258
      ESP Fit Center   88 is at   1.175198  1.783795  2.034258
      ESP Fit Center   89 is at   1.372171  2.834565  1.914756
      ESP Fit Center   90 is at   0.970353  2.942232  1.914756
      ESP Fit Center   91 is at   0.568535  2.834565  1.914756
      ESP Fit Center   92 is at   0.274385  2.540414  1.914756
      ESP Fit Center   93 is at   0.166718  2.138597  1.914756
      ESP Fit Center   94 is at   0.274385  1.736779  1.914756
      ESP Fit Center   95 is at   0.568535  1.442628  1.914756
      ESP Fit Center   96 is at   0.970353  1.334961  1.914756
      ESP Fit Center   97 is at   1.372171  1.442628  1.914756
      ESP Fit Center   98 is at   1.490395  3.182981  1.720695
      ESP Fit Center   99 is at   1.078002  3.300317  1.720695
      ESP Fit Center  100 is at   0.651071  3.260756  1.720695
      ESP Fit Center  101 is at   0.267261  3.069641  1.720695
      ESP Fit Center  102 is at  -0.021593  2.752784  1.720695
      ESP Fit Center  103 is at  -0.176479  2.352977  1.720695
      ESP Fit Center  104 is at  -0.176479  1.924216  1.720695
      ESP Fit Center  105 is at   1.490395  1.094212  1.720695
      ESP Fit Center  106 is at   1.181680  3.608406  1.459533
      ESP Fit Center  107 is at  -0.454421  2.556948  1.459533
      ESP Fit Center  108 is at  -0.514571  2.138597  1.459533
      ESP Fit Center  109 is at  -0.724995  2.556462  1.141306
      ESP Fit Center  110 is at   1.589524  3.771215 -1.192089
      ESP Fit Center  111 is at   1.587213  3.489331 -1.510315
      ESP Fit Center  112 is at   1.181680  3.608406 -1.510315
      ESP Fit Center  113 is at  -0.278845  2.941407 -1.510315
      ESP Fit Center  114 is at   1.832553  2.924596 -1.771477
      ESP Fit Center  115 is at   1.490395  3.182981 -1.771477
      ESP Fit Center  116 is at   1.078002  3.300317 -1.771477
      ESP Fit Center  117 is at   0.651071  3.260756 -1.771477
      ESP Fit Center  118 is at   0.267261  3.069641 -1.771477
      ESP Fit Center  119 is at  -0.021593  2.752784 -1.771477
      ESP Fit Center  120 is at  -0.176479  2.352977 -1.771477
      ESP Fit Center  121 is at   1.773988  2.138597 -1.965538
      ESP Fit Center  122 is at   1.666322  2.540414 -1.965538
      ESP Fit Center  123 is at   1.372171  2.834565 -1.965538
      ESP Fit Center  124 is at   0.970353  2.942232 -1.965538
      ESP Fit Center  125 is at   0.568535  2.834565 -1.965538
      ESP Fit Center  126 is at   0.274385  2.540414 -1.965538
      ESP Fit Center  127 is at   0.166718  2.138597 -1.965538
      ESP Fit Center  128 is at   1.372171  1.442628 -1.965538
      ESP Fit Center  129 is at   1.666322  1.736779 -1.965538
      ESP Fit Center  130 is at   1.380043  2.138597 -2.085040
      ESP Fit Center  131 is at   1.175198  2.493398 -2.085040
      ESP Fit Center  132 is at   0.765508  2.493398 -2.085040
      ESP Fit Center  133 is at   0.560663  2.138597 -2.085040
      ESP Fit Center  134 is at   0.765508  1.783795 -2.085040
      ESP Fit Center  135 is at   1.175198  1.783795 -2.085040
      ESP Fit Center  136 is at   0.970353  2.138597 -2.125391
      ESP Fit Center  137 is at   0.965070 -0.273788  1.843393
      ESP Fit Center  138 is at   1.374760 -0.273788  1.803042
      ESP Fit Center  139 is at   1.169915  0.081013  1.803042
      ESP Fit Center  140 is at   0.760225  0.081013  1.803042
      ESP Fit Center  141 is at   0.555381 -0.273788  1.803042
      ESP Fit Center  142 is at   0.760225 -0.628590  1.803042
      ESP Fit Center  143 is at   1.169915 -0.628590  1.803042
      ESP Fit Center  144 is at   1.366888  0.422180  1.683540
      ESP Fit Center  145 is at   0.161435 -0.273788  1.683540
      ESP Fit Center  146 is at   0.269102 -0.675606  1.683540
      ESP Fit Center  147 is at   0.563253 -0.969757  1.683540
      ESP Fit Center  148 is at   0.965070 -1.077423  1.683540
      ESP Fit Center  149 is at   1.366888 -0.969757  1.683540
      ESP Fit Center  150 is at   0.261978 -1.204833  1.489479
[...]
 8088 Fit      -0.094646
 8089 Fit      -0.095159
 8090 Fit      -0.096131
 8091 Fit      -0.097232
 8092 Fit      -0.098289
 8093 Fit      -0.099380
 8094 Fit      -0.103402
 8095 Fit      -0.104947
 8096 Fit      -0.107063
 8097 Fit      -0.109945
 8098 Fit      -0.113878
 8099 Fit      -0.119122
 8100 Fit      -0.125736
 8101 Fit      -0.097984
 8102 Fit      -0.096151
 8103 Fit      -0.095417
 8104 Fit      -0.095656
 8105 Fit      -0.096661
 8106 Fit      -0.098101
 8107 Fit      -0.099558
 8108 Fit      -0.100710
 8109 Fit      -0.101535
 8110 Fit      -0.102323
 8111 Fit      -0.106862
 8112 Fit      -0.108194
 8113 Fit      -0.110008
 8114 Fit      -0.112442
 8115 Fit      -0.115839
 8116 Fit      -0.120602
 8117 Fit      -0.096564
 8118 Fit      -0.097366
 8119 Fit      -0.098985
 8120 Fit      -0.101099
 8121 Fit      -0.103209
 8122 Fit      -0.104780
 8123 Fit      -0.105549
 8124 Fit      -0.105779
 8125 Fit      -0.106073
 8126 Fit      -0.119382
 8127 Fit      -0.103722
 8128 Fit      -0.107105
 8129 Fit      -0.104921
 8130 Fit      -0.115973
 8131 Fit      -0.108235
 8132 Fit      -0.102028
 8133 Fit      -0.097163
 8134 Fit      -0.093529
 8135 Fit      -0.120807
 8136 Fit      -0.112187
 8137 Fit      -0.105147
 8138 Fit      -0.099483
 8139 Fit      -0.095060
 8140 Fit      -0.091779
 8141 Fit      -0.089555
 8142 Fit      -0.088307
 8143 Fit      -0.117425
 8144 Fit      -0.109609
 8145 Fit      -0.102932
 8146 Fit      -0.097498
 8147 Fit      -0.093287
 8148 Fit      -0.090246
 8149 Fit      -0.088306
 8150 Fit      -0.087386
 8151 Fit      -0.087405
 8152 Fit      -0.088274
 8153 Fit      -0.101172
 8154 Fit      -0.104820
 8155 Fit      -0.109033
 8156 Fit      -0.113776
 8157 Fit      -0.118596
 8158 Fit      -0.121984
 8159 Fit      -0.122220
 8160 Fit      -0.118926
 8161 Fit      -0.113299
 8162 Fit      -0.106947
 8163 Fit      -0.100980
 8164 Fit      -0.095934
 8165 Fit      -0.092011
 8166 Fit      -0.089257
 8167 Fit      -0.087639
 8168 Fit      -0.087078
 8169 Fit      -0.087456
 8170 Fit      -0.088612
 8171 Fit      -0.090311
 8172 Fit      -0.092255
 8173 Fit      -0.094181
 8174 Fit      -0.096070
 8175 Fit      -0.098265
 8176 Fit      -0.098301
 8177 Fit      -0.101779
 8178 Fit      -0.105600
 8179 Fit      -0.109155
 8180 Fit      -0.111206
 8181 Fit      -0.110519
 8182 Fit      -0.107106
 8183 Fit      -0.102198
 8184 Fit      -0.097167
 8185 Fit      -0.092897
 8186 Fit      -0.089798
 8187 Fit      -0.087993
 8188 Fit      -0.087427
 8189 Fit      -0.087929
 8190 Fit      -0.089230
 8191 Fit      -0.091011
 8192 Fit      -0.093052
 8193 Fit      -0.095407
 8194 Fit      -0.096027
 8195 Fit      -0.099450
 8196 Fit      -0.102352
 8197 Fit      -0.103129
 8198 Fit      -0.100865
 8199 Fit      -0.096662
 8200 Fit      -0.092469
 8201 Fit      -0.089591
 8202 Fit      -0.088469
 8203 Fit      -0.088956
 8204 Fit      -0.090599
 8205 Fit      -0.092997
 8206 Fit      -0.094323
 8207 Fit      -0.097108
 8208 Fit      -0.096299
 8209 Fit      -0.092557
 8210 Fit      -0.090342
 8211 Fit      -0.091306
 8212 Fit      -0.093171
 8213 Fit      -0.100678
 8214 Fit      -0.094971
 8215 Fit      -0.094694
 8216 Fit      -0.096858
 8217 Fit      -0.101450
 8218 Fit      -0.091731
 8219 Fit      -0.091234
 8220 Fit      -0.092627
 8221 Fit      -0.096063
 8222 Fit      -0.101763
 8223 Fit      -0.089556
 8224 Fit      -0.088383
 8225 Fit      -0.088719
 8226 Fit      -0.090697
 8227 Fit      -0.094547
 8228 Fit      -0.100641
 8229 Fit      -0.087940
 8230 Fit      -0.086378
 8231 Fit      -0.086000
 8232 Fit      -0.086899
 8233 Fit      -0.089229
 8234 Fit      -0.093247
 8235 Fit      -0.099369
 8236 Fit      -0.086499
 8237 Fit      -0.084809
 8238 Fit      -0.084180
 8239 Fit      -0.084695
 8240 Fit      -0.086485
 8241 Fit      -0.089765
 8242 Fit      -0.094894
 8243 Fit      -0.102469
 8244 Fit      -0.088212
 8245 Fit      -0.085565
 8246 Fit      -0.083801
 8247 Fit      -0.082977
 8248 Fit      -0.083159
 8249 Fit      -0.084447
 8250 Fit      -0.087005
 8251 Fit      -0.091100
 8252 Fit      -0.097169
 8253 Fit      -0.105958
 8254 Fit      -0.086150
 8255 Fit      -0.083964
 8256 Fit      -0.082635
 8257 Fit      -0.082204
 8258 Fit      -0.082738
 8259 Fit      -0.084345
 8260 Fit      -0.087198
 8261 Fit      -0.091572
 8262 Fit      -0.097916
 8263 Fit      -0.087025
 8264 Fit      -0.084494
 8265 Fit      -0.082827
 8266 Fit      -0.082056
 8267 Fit      -0.082236
 8268 Fit      -0.083459
 8269 Fit      -0.085872
 8270 Fit      -0.089703
 8271 Fit      -0.095320
 8272 Fit      -0.103323
 8273 Fit      -0.086736
 8274 Fit      -0.084341
 8275 Fit      -0.082853
 8276 Fit      -0.082315
 8277 Fit      -0.082797
 8278 Fit      -0.084405
 8279 Fit      -0.087308
 8280 Fit      -0.091761
 8281 Fit      -0.098165
 8282 Fit      -0.086819
 8283 Fit      -0.084648
 8284 Fit      -0.083400
 8285 Fit      -0.083134
 8286 Fit      -0.083931
 8287 Fit      -0.085905
 8288 Fit      -0.089221
 8289 Fit      -0.094110
 8290 Fit      -0.100888
 8291 Fit      -0.085172
 8292 Fit      -0.084372
 8293 Fit      -0.084728
 8294 Fit      -0.086347
 8295 Fit      -0.089359
 8296 Fit      -0.093913
 8297 Fit      -0.100126
 8298 Fit      -0.086263
 8299 Fit      -0.086083
 8300 Fit      -0.087239
 8301 Fit      -0.089821
 8302 Fit      -0.093846
 8303 Fit      -0.089917
 8304 Fit      -0.103682
 8305 Fit      -0.097219
 8306 Fit      -0.102004
 8307 Fit      -0.095193
 8308 Fit      -0.102445
 8309 Fit      -0.094755
 8310 Fit      -0.089536
 8311 Fit      -0.094714
 8312 Fit      -0.088962
 8313 Fit      -0.098688
 8314 Fit      -0.091242
 8315 Fit      -0.094774
 8316 Fit      -0.088384
 8317 Fit      -0.093098
 8318 Fit      -0.087264
 8319 Fit      -0.094856
 8320 Fit      -0.088583
 8321 Fit      -0.098737
 8322 Fit      -0.091504
 8323 Fit      -0.086630
 8324 Fit      -0.094907
 8325 Fit      -0.089488
 8326 Fit      -0.102226
 8327 Fit      -0.094981
 8328 Fit      -0.090195
 8329 Fit      -0.101690
 8330 Fit      -0.095450
 8331 Fit      -0.091528
 8332 Fit      -0.103121
 8333 Fit      -0.097399
 8334 Fit      -0.105699
 8335 Fit      -0.113294
 8336 Fit      -0.122341
 8337 Fit      -0.131262
 8338 Fit      -0.097298
 8339 Fit      -0.103190
 8340 Fit      -0.111245
 8341 Fit      -0.121524
 8342 Fit      -0.133543
 8343 Fit      -0.094785
 8344 Fit      -0.100736
 8345 Fit      -0.108728
 8346 Fit      -0.119179
 8347 Fit      -0.132409
 8348 Fit      -0.090300
 8349 Fit      -0.095688
 8350 Fit      -0.102850
 8351 Fit      -0.112377
 8352 Fit      -0.124987
 8353 Fit      -0.086537
 8354 Fit      -0.091360
 8355 Fit      -0.097529
 8356 Fit      -0.105644
 8357 Fit      -0.116427
 8358 Fit      -0.130873
 8359 Fit      -0.084678
 8360 Fit      -0.089242
 8361 Fit      -0.094939
 8362 Fit      -0.102352
 8363 Fit      -0.112161
 8364 Fit      -0.125312
 8365 Fit      -0.085648
 8366 Fit      -0.090393
 8367 Fit      -0.096503
 8368 Fit      -0.104575
 8369 Fit      -0.115369
 8370 Fit      -0.084424
 8371 Fit      -0.088420
 8372 Fit      -0.093703
 8373 Fit      -0.100781
 8374 Fit      -0.110293
 8375 Fit      -0.123131
 8376 Fit      -0.087678
 8377 Fit      -0.091887
 8378 Fit      -0.097753
 8379 Fit      -0.105717
 8380 Fit      -0.116362
 8381 Fit      -0.089540
 8382 Fit      -0.093464
 8383 Fit      -0.099342
 8384 Fit      -0.107492
 8385 Fit      -0.118274
 8386 Fit      -0.095448
 8387 Fit      -0.101123
 8388 Fit      -0.109033
 8389 Fit      -0.118996
 8390 Fit      -0.098973
 8391 Fit      -0.105096
 8392 Fit      -0.113001
 8393 Fit      -0.121073
 8394 Fit      -0.104508
 8395 Fit      -0.111101
 8396 Fit      -0.080912
 8397 Fit      -0.080175
 8398 Fit      -0.081418
 8399 Fit      -0.080375
 8400 Fit      -0.077786
 8401 Fit      -0.076996
 8402 Fit      -0.077820
 8403 Fit      -0.080089
 8404 Fit      -0.081037
 8405 Fit      -0.077009
 8406 Fit      -0.074890
 8407 Fit      -0.074365
 8408 Fit      -0.075229
 8409 Fit      -0.077338
 8410 Fit      -0.080562
 8411 Fit      -0.084751
 8412 Fit      -0.077470
 8413 Fit      -0.074191
 8414 Fit      -0.072551
 8415 Fit      -0.072256
 8416 Fit      -0.073133
 8417 Fit      -0.075067
 8418 Fit      -0.077960
 8419 Fit      -0.081696
 8420 Fit      -0.077573
 8421 Fit      -0.073603
 8422 Fit      -0.071406
 8423 Fit      -0.070600
 8424 Fit      -0.070968
 8425 Fit      -0.072381
 8426 Fit      -0.074746
 8427 Fit      -0.077973
 8428 Fit      -0.081920
 8429 Fit      -0.077984
 8430 Fit      -0.073526
 8431 Fit      -0.070893
 8432 Fit      -0.069648
 8433 Fit      -0.069549
 8434 Fit      -0.070453
 8435 Fit      -0.072271
 8436 Fit      -0.074926
 8437 Fit      -0.078320
 8438 Fit      -0.082274
 8439 Fit      -0.077831
 8440 Fit      -0.073314
 8441 Fit      -0.070566
 8442 Fit      -0.069165
 8443 Fit      -0.068871
 8444 Fit      -0.069546
 8445 Fit      -0.071099
 8446 Fit      -0.073461
 8447 Fit      -0.076546
 8448 Fit      -0.080208
 8449 Fit      -0.084141
 8450 Fit      -0.076518
 8451 Fit      -0.072459
 8452 Fit      -0.070036
 8453 Fit      -0.068902
 8454 Fit      -0.068852
 8455 Fit      -0.069765
 8456 Fit      -0.071558
 8457 Fit      -0.074153
 8458 Fit      -0.077444
 8459 Fit      -0.081227
 8460 Fit      -0.080246
 8461 Fit      -0.075016
 8462 Fit      -0.071676
 8463 Fit      -0.069811
 8464 Fit      -0.069170
 8465 Fit      -0.069599
 8466 Fit      -0.070994
 8467 Fit      -0.073273
 8468 Fit      -0.076335
 8469 Fit      -0.080007
 8470 Fit      -0.078305
 8471 Fit      -0.074178
 8472 Fit      -0.071591
 8473 Fit      -0.070314
 8474 Fit      -0.070187
 8475 Fit      -0.071098
 8476 Fit      -0.072957
 8477 Fit      -0.075669
 8478 Fit      -0.079095
 8479 Fit      -0.082995
 8480 Fit      -0.080952
 8481 Fit      -0.076453
 8482 Fit      -0.073468
 8483 Fit      -0.071901
 8484 Fit      -0.071631
 8485 Fit      -0.072550
 8486 Fit      -0.074556
 8487 Fit      -0.077526
 8488 Fit      -0.081281
 8489 Fit      -0.079214
 8490 Fit      -0.075934
 8491 Fit      -0.074070
 8492 Fit      -0.073626
 8493 Fit      -0.074531
 8494 Fit      -0.076676
 8495 Fit      -0.079906
 8496 Fit      -0.078677
 8497 Fit      -0.076637
 8498 Fit      -0.076264
 8499 Fit      -0.077552
 8500 Fit      -0.080349
 8501 Fit      -0.051270
 8502 Fit      -0.048700
 8503 Fit      -0.050454
 8504 Fit      -0.053279
 8505 Fit      -0.054359
 8506 Fit      -0.052428
 8507 Fit      -0.049586
 8508 Fit      -0.046611
 8509 Fit      -0.047735
 8510 Fit      -0.049938
 8511 Fit      -0.052809
 8512 Fit      -0.055638
 8513 Fit      -0.057573
 8514 Fit      -0.058005
 8515 Fit      -0.056700
 8516 Fit      -0.053969
 8517 Fit      -0.050802
 8518 Fit      -0.048214
 8519 Fit      -0.046759
 8520 Fit      -0.044966
 8521 Fit      -0.045828
 8522 Fit      -0.047419
 8523 Fit      -0.049670
 8524 Fit      -0.052449
 8525 Fit      -0.055496
 8526 Fit      -0.058388
 8527 Fit      -0.060649
 8528 Fit      -0.061968
 8529 Fit      -0.062242
 8530 Fit      -0.061326
 8531 Fit      -0.059105
 8532 Fit      -0.055928
 8533 Fit      -0.052518
 8534 Fit      -0.049484
 8535 Fit      -0.047140
 8536 Fit      -0.045597
 8537 Fit      -0.044878
 8538 Fit      -0.043727
 8539 Fit      -0.044477
 8540 Fit      -0.045783
 8541 Fit      -0.047633
 8542 Fit      -0.050019
 8543 Fit      -0.052902
 8544 Fit      -0.056158
 8545 Fit      -0.055698
 8546 Fit      -0.052062
 8547 Fit      -0.049029
 8548 Fit      -0.046676
 8549 Fit      -0.044996
 8550 Fit      -0.043963
 8551 Fit      -0.043549
 8552 Fit      -0.042858
 8553 Fit      -0.043543
 8554 Fit      -0.044684
 8555 Fit      -0.046284
 8556 Fit      -0.048364
 8557 Fit      -0.052546
 8558 Fit      -0.049342
 8559 Fit      -0.046839
 8560 Fit      -0.044965
 8561 Fit      -0.043666
 8562 Fit      -0.042900
 8563 Fit      -0.042638
 8564 Fit      -0.042318
 8565 Fit      -0.042929
 8566 Fit      -0.043908
 8567 Fit      -0.045255
 8568 Fit      -0.053027
 8569 Fit      -0.049779
 8570 Fit      -0.047226
 8571 Fit      -0.045257
 8572 Fit      -0.043798
 8573 Fit      -0.042803
 8574 Fit      -0.042240
 8575 Fit      -0.042084
 8576 Fit      -0.042064
 8577 Fit      -0.042639
 8578 Fit      -0.043541
 8579 Fit      -0.051680
 8580 Fit      -0.048738
 8581 Fit      -0.046433
 8582 Fit      -0.044656
 8583 Fit      -0.043342
 8584 Fit      -0.042451
 8585 Fit      -0.041954
 8586 Fit      -0.041831
 8587 Fit      -0.042051
 8588 Fit      -0.050429
 8589 Fit      -0.047895
 8590 Fit      -0.045880
 8591 Fit      -0.044313
 8592 Fit      -0.043150
 8593 Fit      -0.042363
 8594 Fit      -0.041929
 8595 Fit      -0.041831
 8596 Fit      -0.047655
 8597 Fit      -0.045806
 8598 Fit      -0.044349
 8599 Fit      -0.043261
 8600 Fit      -0.042522
 8601 Fit      -0.042115
 8602 Fit      -0.047762
 8603 Fit      -0.045810
 8604 Fit      -0.044269
 8605 Fit      -0.043121
 8606 Fit      -0.042347
 8607 Fit      -0.041928
 8608 Fit      -0.041873
 8609 Fit      -0.049724
 8610 Fit      -0.047300
 8611 Fit      -0.045363
 8612 Fit      -0.043862
 8613 Fit      -0.042761
 8614 Fit      -0.042035
 8615 Fit      -0.041659
 8616 Fit      -0.041612
 8617 Fit      -0.041877
 8618 Fit      -0.042485
 8619 Fit      -0.050521
 8620 Fit      -0.047788
 8621 Fit      -0.045644
 8622 Fit      -0.044002
 8623 Fit      -0.042808
 8624 Fit      -0.042025
 8625 Fit      -0.041625
 8626 Fit      -0.041583
 8627 Fit      -0.042127
 8628 Fit      -0.042806
 8629 Fit      -0.043822
 8630 Fit      -0.052230
 8631 Fit      -0.049008
 8632 Fit      -0.046514
 8633 Fit      -0.044620
 8634 Fit      -0.043246
 8635 Fit      -0.042342
 8636 Fit      -0.041872
 8637 Fit      -0.041808
 8638 Fit      -0.042664
 8639 Fit      -0.043394
 8640 Fit      -0.044515
 8641 Fit      -0.046016
 8642 Fit      -0.054129
 8643 Fit      -0.050508
 8644 Fit      -0.047702
 8645 Fit      -0.045569
 8646 Fit      -0.044017
 8647 Fit      -0.042987
 8648 Fit      -0.042438
 8649 Fit      -0.042338
 8650 Fit      -0.043526
 8651 Fit      -0.044355
 8652 Fit      -0.045680
 8653 Fit      -0.047505
 8654 Fit      -0.053997
 8655 Fit      -0.050393
 8656 Fit      -0.047621
 8657 Fit      -0.045581
 8658 Fit      -0.044199
 8659 Fit      -0.043422
 8660 Fit      -0.043207
 8661 Fit      -0.044750
 8662 Fit      -0.045670
 8663 Fit      -0.047211
 8664 Fit      -0.049376
 8665 Fit      -0.053824
 8666 Fit      -0.050391
 8667 Fit      -0.047773
 8668 Fit      -0.045942
 8669 Fit      -0.044855
 8670 Fit      -0.044469
 8671 Fit      -0.046371
 8672 Fit      -0.047440
 8673 Fit      -0.049347
 8674 Fit      -0.052042
 8675 Fit      -0.055420
 8676 Fit      -0.058642
 8677 Fit      -0.054684
 8678 Fit      -0.051221
 8679 Fit      -0.048595
 8680 Fit      -0.046914
 8681 Fit      -0.046182
 8682 Fit      -0.048424
 8683 Fit      -0.049826
 8684 Fit      -0.052491
 8685 Fit      -0.055961
 8686 Fit      -0.059333
 8687 Fit      -0.061441
 8688 Fit      -0.061644
 8689 Fit      -0.059923
 8690 Fit      -0.056669
 8691 Fit      -0.052999
 8692 Fit      -0.050071
 8693 Fit      -0.048489
 8694 Fit      -0.050943
 8695 Fit      -0.053108
 8696 Fit      -0.056438
 8697 Fit      -0.057525
 8698 Fit      -0.055131
 8699 Fit      -0.051855
 8700 Fit      -0.053966
 8701 Fit      -0.053368
 8702 Fit      -0.056861
 8703 Fit      -0.061261
 8704 Fit      -0.048469
 8705 Fit      -0.050260
 8706 Fit      -0.052827
 8707 Fit      -0.056305
 8708 Fit      -0.060774
 8709 Fit      -0.066198
 8710 Fit      -0.046757
 8711 Fit      -0.048126
 8712 Fit      -0.050132
 8713 Fit      -0.052917
 8714 Fit      -0.056625
 8715 Fit      -0.061407
 8716 Fit      -0.067404
 8717 Fit      -0.044830
 8718 Fit      -0.045477
 8719 Fit      -0.046518
 8720 Fit      -0.048069
 8721 Fit      -0.050248
 8722 Fit      -0.053182
 8723 Fit      -0.057026
 8724 Fit      -0.061974
 8725 Fit      -0.068285
 8726 Fit      -0.044141
 8727 Fit      -0.044679
 8728 Fit      -0.045587
 8729 Fit      -0.046970
 8730 Fit      -0.048938
 8731 Fit      -0.051616
 8732 Fit      -0.055160
 8733 Fit      -0.059778
 8734 Fit      -0.065776
 8735 Fit      -0.073624
 8736 Fit      -0.043768
 8737 Fit      -0.044226
 8738 Fit      -0.045021
 8739 Fit      -0.046247
 8740 Fit      -0.048002
 8741 Fit      -0.050400
 8742 Fit      -0.053579
 8743 Fit      -0.057729
 8744 Fit      -0.063130
 8745 Fit      -0.070225
 8746 Fit      -0.043721
 8747 Fit      -0.044151
 8748 Fit      -0.044902
 8749 Fit      -0.046065
 8750 Fit      -0.047733
 8751 Fit      -0.050013
 8752 Fit      -0.053039
 8753 Fit      -0.056991
 8754 Fit      -0.062136
 8755 Fit      -0.068901
 8756 Fit      -0.044015
 8757 Fit      -0.044485
 8758 Fit      -0.045301
 8759 Fit      -0.046560
 8760 Fit      -0.048367
 8761 Fit      -0.050843
 8762 Fit      -0.054140
 8763 Fit      -0.058474
 8764 Fit      -0.064170
 8765 Fit      -0.071769
 8766 Fit      -0.044655
 8767 Fit      -0.045219
 8768 Fit      -0.046172
 8769 Fit      -0.047632
 8770 Fit      -0.049720
 8771 Fit      -0.052583
 8772 Fit      -0.056411
 8773 Fit      -0.061481
 8774 Fit      -0.068228
 8775 Fit      -0.045651
 8776 Fit      -0.046336
 8777 Fit      -0.047454
 8778 Fit      -0.049135
 8779 Fit      -0.051521
 8780 Fit      -0.054778
 8781 Fit      -0.059125
 8782 Fit      -0.064880
 8783 Fit      -0.072542
 8784 Fit      -0.047074
 8785 Fit      -0.048011
 8786 Fit      -0.049513
 8787 Fit      -0.051757
 8788 Fit      -0.054931
 8789 Fit      -0.059264
 8790 Fit      -0.065057
 8791 Fit      -0.050220
 8792 Fit      -0.052239
 8793 Fit      -0.055223
 8794 Fit      -0.059395
 8795 Fit      -0.064991
 8796 Fit      -0.053266
 8797 Fit      -0.056236
 8798 Fit      -0.060538
 8799 Fit      -0.066269
 -----------------------------------------------------------------
 Leave Link  602 at Tue Jun 21 19:12:29 2016, MaxMem=   33554432 cpu:       3.8

 Test job not archived.
 1\1\GINC-NODE37\FOpt\RHF\6-31G(d)\C12H11N2O3S1(1-)\DAVE\21-Jun-2016\0\
 \#HF/6-31G* SCF=tight Test Pop=MK iop(6/33=2) iop(6/42=6) opt\\remark 
 line goes here\\-1,1\C,-3.9684970843,8.9042317674,12.8775308615\C,-2.6
 660524255,8.5151207311,13.0583687897\C,-3.2163636913,7.385989068,15.12
 72164071\C,-4.9268889003,8.540845631,13.82211031\C,-2.2707410876,7.755
 7082009,14.1805983216\C,-4.5287909565,7.7912198201,14.9203885173\C,-6.
 9079360751,8.3957328352,14.7647728204\C,-8.3794908962,8.5785087353,14.
 9843244064\C,-0.2785700763,6.6562727289,15.1561126516\C,1.6427115764,6
 .9256496847,12.3128264346\C,1.2108350191,6.5112667874,14.8853844725\C,
 1.5930983277,5.934526339,13.5084945557\N,-6.2795481209,8.8627373682,13
 .7700012455\N,-0.9208996131,7.4351866128,14.2519428316\O,-0.8074665203
 ,6.1266796447,16.1045829455\O,1.0215163455,8.0019267601,12.4508666831\
 O,2.2802252523,6.5373740828,11.3465216801\S,-5.9337826386,7.4870516623
 ,15.920924359\H,-0.3156946363,7.7842485237,13.5084127194\H,2.576156388
 6,5.4823639765,13.5814678051\H,0.9164586062,5.124932417,13.239892292\H
 ,1.6684978158,7.4896452922,14.99757596\H,1.5845707712,5.873640811,15.6
 774194283\H,-2.9293457806,6.807043805,15.9782896117\H,-1.914516404,8.7
 802125839,12.3365790859\H,-4.2579539589,9.4813748528,12.0182894934\H,-
 8.8899657157,7.6212869849,15.0239958125\H,-8.5734716365,9.0967553048,1
 5.9182829091\H,-8.783093885,9.1604669883,14.1668265893\\Version=EM64L-
 G09RevC.01\State=1-A\HF=-1191.9195108\RMSD=7.925e-09\RMSF=1.888e-06\Di
 pole=-5.362275,0.6859552,2.5279484\Quadrupole=-21.6396287,19.8463039,1
 .7933248,7.147691,26.1577468,0.4173147\PG=C01 [X(C12H11N2O3S1)]\\@


 ERWIN WITH HIS PSI CAN DO
 CALCULATIONS QUITE A FEW.
 BUT ONE THING HAS NOT BEEN SEEN
 JUST WHAT DOES PSI REALLY MEAN.
 -- WALTER HUCKEL, TRANS. BY FELIX BLOCH
 Job cpu time:  0 days  2 hours  4 minutes 41.7 seconds.
 File lengths (MBytes):  RWF=     67 Int=      0 D2E=      0 Chk=      8 Scr=      1
 Normal termination of Gaussian 09 at Tue Jun 21 19:12:30 2016.
