 Entering Gaussian System, Link 0=/usr/local/g09_c01/g09
 Initial command:
 /usr/local/g09_c01/l1.exe /scr/gf/dave/80786/Gau-2924.inp -scrdir=/scr/gf/dave/80786/
 Entering Link 1 = /usr/local/g09_c01/l1.exe PID=      2926.
  
 Copyright (c) 1988,1990,1992,1993,1995,1998,2003,2009,2011,
            Gaussian, Inc.  All Rights Reserved.
  
 This is part of the Gaussian(R) 09 program.  It is based on
 the Gaussian(R) 03 system (copyright 2003, Gaussian, Inc.),
 the Gaussian(R) 98 system (copyright 1998, Gaussian, Inc.),
 the Gaussian(R) 94 system (copyright 1995, Gaussian, Inc.),
 the Gaussian 92(TM) system (copyright 1992, Gaussian, Inc.),
 the Gaussian 90(TM) system (copyright 1990, Gaussian, Inc.),
 the Gaussian 88(TM) system (copyright 1988, Gaussian, Inc.),
 the Gaussian 86(TM) system (copyright 1986, Carnegie Mellon
 University), and the Gaussian 82(TM) system (copyright 1983,
 Carnegie Mellon University). Gaussian is a federally registered
 trademark of Gaussian, Inc.
  
 This software contains proprietary and confidential information,
 including trade secrets, belonging to Gaussian, Inc.
  
 This software is provided under written license and may be
 used, copied, transmitted, or stored only in accord with that
 written license.
  
 The following legend is applicable only to US Government
 contracts under FAR:
  
                    RESTRICTED RIGHTS LEGEND
  
 Use, reproduction and disclosure by the US Government is
 subject to restrictions as set forth in subparagraphs (a)
 and (c) of the Commercial Computer Software - Restricted
 Rights clause in FAR 52.227-19.
  
 Gaussian, Inc.
 340 Quinnipiac St., Bldg. 40, Wallingford CT 06492
  
  
 ---------------------------------------------------------------
 Warning -- This program may not be used in any manner that
 competes with the business of Gaussian, Inc. or will provide
 assistance to any competitor of Gaussian, Inc.  The licensee
 of this program is prohibited from giving any competitor of
 Gaussian, Inc. access to this program.  By using this program,
 the user acknowledges that Gaussian, Inc. is engaged in the
 business of creating and licensing software in the field of
 computational chemistry and represents and warrants to the
 licensee that it is not a competitor of Gaussian, Inc. and that
 it will not use this program in any manner prohibited above.
 ---------------------------------------------------------------
  

 Cite this work as:
 Gaussian 09, Revision C.01,
 M. J. Frisch, G. W. Trucks, H. B. Schlegel, G. E. Scuseria, 
 M. A. Robb, J. R. Cheeseman, G. Scalmani, V. Barone, B. Mennucci, 
 G. A. Petersson, H. Nakatsuji, M. Caricato, X. Li, H. P. Hratchian, 
 A. F. Izmaylov, J. Bloino, G. Zheng, J. L. Sonnenberg, M. Hada, 
 M. Ehara, K. Toyota, R. Fukuda, J. Hasegawa, M. Ishida, T. Nakajima, 
 Y. Honda, O. Kitao, H. Nakai, T. Vreven, J. A. Montgomery, Jr., 
 J. E. Peralta, F. Ogliaro, M. Bearpark, J. J. Heyd, E. Brothers, 
 K. N. Kudin, V. N. Staroverov, T. Keith, R. Kobayashi, J. Normand, 
 K. Raghavachari, A. Rendell, J. C. Burant, S. S. Iyengar, J. Tomasi, 
 M. Cossi, N. Rega, J. M. Millam, M. Klene, J. E. Knox, J. B. Cross, 
 V. Bakken, C. Adamo, J. Jaramillo, R. Gomperts, R. E. Stratmann, 
 O. Yazyev, A. J. Austin, R. Cammi, C. Pomelli, J. W. Ochterski, 
 R. L. Martin, K. Morokuma, V. G. Zakrzewski, G. A. Voth, 
 P. Salvador, J. J. Dannenberg, S. Dapprich, A. D. Daniels, 
 O. Farkas, J. B. Foresman, J. V. Ortiz, J. Cioslowski, 
 and D. J. Fox, Gaussian, Inc., Wallingford CT, 2010.
 
 ******************************************
 Gaussian 09:  EM64L-G09RevC.01 23-Sep-2011
                16-Jun-2016 
 ******************************************
 %chk=molecule
 ------------------------------------------------------------
 #HF/6-31G* SCF=tight Test Pop=MK iop(6/33=2) iop(6/42=6) opt
 ------------------------------------------------------------
 1/18=20,19=15,38=1/1,3;
 2/9=110,12=2,17=6,18=5,40=1/2;
 3/5=1,6=6,7=1,11=9,16=1,25=1,30=1,71=1/1,2,3;
 4//1;
 5/5=2,32=2,38=5/2;
 6/7=2,8=2,9=2,10=2,15=8,20=1,28=1,33=2,42=6/1,2;
 7//1,2,3,16;
 1/18=20,19=15/3(2);
 2/9=110/2;
 99//99;
 2/9=110/2;
 3/5=1,6=6,7=1,11=9,16=1,25=1,30=1,71=1/1,2,3;
 4/5=5,16=3/1;
 5/5=2,32=2,38=5/2;
 7//1,2,3,16;
 1/18=20,19=15/3(-5);
 2/9=110/2;
 6/7=2,8=2,9=2,10=2,15=8,19=2,20=1,28=1,33=2,42=6/1,2;
 99/9=1/99;
 ---------------------
 remark line goes here
 ---------------------
 Charge =  0 Multiplicity = 1
 Symbolic Z-Matrix:
 C                    -5.807     7.417     15.37 
 C                    -4.685     7.777     14.656 
 C                    -4.763     8.774     13.695 
 C                    -5.98      9.403     13.46 
 C                    -7.13      9.053     14.169 
 C                    -7.029     8.049     15.134 
 C                    -8.476     9.703     13.953 
 N                    -8.969     10.163    12.813 
 N                    -10.208    10.646    13.101 
 N                    -10.473    10.497    14.358 
 N                    -9.395     9.903     14.908 
 Cl                   -6.004     10.646    12.246 
 H                    -8.507     10.157    11.893 
 H                    -7.904     7.758     15.703 
 H                    -3.882     9.06      13.131 
 H                    -3.741     7.279     14.845 
 H                    -5.74      6.638     16.121 
 

 GradGradGradGradGradGradGradGradGradGradGradGradGradGradGradGradGradGrad
 Berny optimization.
 Initialization pass.
                           ----------------------------
                           !    Initial Parameters    !
                           ! (Angstroms and Degrees)  !
 --------------------------                            --------------------------
 ! Name  Definition              Value          Derivative Info.                !
 --------------------------------------------------------------------------------
 ! R1    R(1,2)                  1.3778         estimate D2E/DX2                !
 ! R2    R(1,6)                  1.3959         estimate D2E/DX2                !
 ! R3    R(1,17)                 1.0841         estimate D2E/DX2                !
 ! R4    R(2,3)                  1.3869         estimate D2E/DX2                !
 ! R5    R(2,16)                 1.0839         estimate D2E/DX2                !
 ! R6    R(3,4)                  1.3899         estimate D2E/DX2                !
 ! R7    R(3,15)                 1.0845         estimate D2E/DX2                !
 ! R8    R(4,5)                  1.3956         estimate D2E/DX2                !
 ! R9    R(4,12)                 1.7376         estimate D2E/DX2                !
 ! R10   R(5,6)                  1.3962         estimate D2E/DX2                !
 ! R11   R(5,7)                  1.5103         estimate D2E/DX2                !
 ! R12   R(6,14)                 1.0835         estimate D2E/DX2                !
 ! R13   R(7,8)                  1.3245         estimate D2E/DX2                !
 ! R14   R(7,11)                 1.3404         estimate D2E/DX2                !
 ! R15   R(8,9)                  1.3606         estimate D2E/DX2                !
 ! R16   R(8,13)                 1.0295         estimate D2E/DX2                !
 ! R17   R(9,10)                 1.2932         estimate D2E/DX2                !
 ! R18   R(10,11)                1.3481         estimate D2E/DX2                !
 ! A1    A(2,1,6)              120.4645         estimate D2E/DX2                !
 ! A2    A(2,1,17)             119.7627         estimate D2E/DX2                !
 ! A3    A(6,1,17)             119.7728         estimate D2E/DX2                !
 ! A4    A(1,2,3)              120.0729         estimate D2E/DX2                !
 ! A5    A(1,2,16)             119.9224         estimate D2E/DX2                !
 ! A6    A(3,2,16)             120.0047         estimate D2E/DX2                !
 ! A7    A(2,3,4)              119.4519         estimate D2E/DX2                !
 ! A8    A(2,3,15)             120.2813         estimate D2E/DX2                !
 ! A9    A(4,3,15)             120.2669         estimate D2E/DX2                !
 ! A10   A(3,4,5)              121.4737         estimate D2E/DX2                !
 ! A11   A(3,4,12)             116.996          estimate D2E/DX2                !
 ! A12   A(5,4,12)             121.5302         estimate D2E/DX2                !
 ! A13   A(4,5,6)              118.1547         estimate D2E/DX2                !
 ! A14   A(4,5,7)              123.6284         estimate D2E/DX2                !
 ! A15   A(6,5,7)              118.2166         estimate D2E/DX2                !
 ! A16   A(1,6,5)              120.3819         estimate D2E/DX2                !
 ! A17   A(1,6,14)             119.7737         estimate D2E/DX2                !
 ! A18   A(5,6,14)             119.8444         estimate D2E/DX2                !
 ! A19   A(5,7,8)              127.1797         estimate D2E/DX2                !
 ! A20   A(5,7,11)             124.9863         estimate D2E/DX2                !
 ! A21   A(8,7,11)             107.8317         estimate D2E/DX2                !
 ! A22   A(7,8,9)              106.263          estimate D2E/DX2                !
 ! A23   A(7,8,13)             126.8772         estimate D2E/DX2                !
 ! A24   A(9,8,13)             126.8598         estimate D2E/DX2                !
 ! A25   A(8,9,10)             110.5746         estimate D2E/DX2                !
 ! A26   A(9,10,11)            106.4665         estimate D2E/DX2                !
 ! A27   A(7,11,10)            108.8639         estimate D2E/DX2                !
 ! D1    D(6,1,2,3)              0.0318         estimate D2E/DX2                !
 ! D2    D(6,1,2,16)          -179.8737         estimate D2E/DX2                !
 ! D3    D(17,1,2,3)          -179.913          estimate D2E/DX2                !
 ! D4    D(17,1,2,16)            0.1815         estimate D2E/DX2                !
 ! D5    D(2,1,6,5)              0.1135         estimate D2E/DX2                !
 ! D6    D(2,1,6,14)          -179.9141         estimate D2E/DX2                !
 ! D7    D(17,1,6,5)          -179.9417         estimate D2E/DX2                !
 ! D8    D(17,1,6,14)            0.0308         estimate D2E/DX2                !
 ! D9    D(1,2,3,4)             -0.0438         estimate D2E/DX2                !
 ! D10   D(1,2,3,15)          -179.9968         estimate D2E/DX2                !
 ! D11   D(16,2,3,4)           179.8616         estimate D2E/DX2                !
 ! D12   D(16,2,3,15)           -0.0914         estimate D2E/DX2                !
 ! D13   D(2,3,4,5)             -0.0901         estimate D2E/DX2                !
 ! D14   D(2,3,4,12)           179.8099         estimate D2E/DX2                !
 ! D15   D(15,3,4,5)           179.8629         estimate D2E/DX2                !
 ! D16   D(15,3,4,12)           -0.237          estimate D2E/DX2                !
 ! D17   D(3,4,5,6)              0.23           estimate D2E/DX2                !
 ! D18   D(3,4,5,7)           -179.9646         estimate D2E/DX2                !
 ! D19   D(12,4,5,6)          -179.6656         estimate D2E/DX2                !
 ! D20   D(12,4,5,7)             0.1399         estimate D2E/DX2                !
 ! D21   D(4,5,6,1)             -0.2398         estimate D2E/DX2                !
 ! D22   D(4,5,6,14)           179.7878         estimate D2E/DX2                !
 ! D23   D(7,5,6,1)            179.944          estimate D2E/DX2                !
 ! D24   D(7,5,6,14)            -0.0284         estimate D2E/DX2                !
 ! D25   D(4,5,7,8)             33.6378         estimate D2E/DX2                !
 ! D26   D(4,5,7,11)          -146.9779         estimate D2E/DX2                !
 ! D27   D(6,5,7,8)           -146.5568         estimate D2E/DX2                !
 ! D28   D(6,5,7,11)            32.8274         estimate D2E/DX2                !
 ! D29   D(5,7,8,9)            179.4698         estimate D2E/DX2                !
 ! D30   D(5,7,8,13)            -0.57           estimate D2E/DX2                !
 ! D31   D(11,7,8,9)            -0.0002         estimate D2E/DX2                !
 ! D32   D(11,7,8,13)          179.9599         estimate D2E/DX2                !
 ! D33   D(5,7,11,10)         -179.6002         estimate D2E/DX2                !
 ! D34   D(8,7,11,10)           -0.1155         estimate D2E/DX2                !
 ! D35   D(7,8,9,10)             0.1221         estimate D2E/DX2                !
 ! D36   D(13,8,9,10)         -179.838          estimate D2E/DX2                !
 ! D37   D(8,9,10,11)           -0.1909         estimate D2E/DX2                !
 ! D38   D(9,10,11,7)            0.1888         estimate D2E/DX2                !
 --------------------------------------------------------------------------------
 Trust Radius=3.00D-01 FncErr=1.00D-07 GrdErr=1.00D-07
 Number of steps in this run=     93 maximum allowed number of steps=    102.
 GradGradGradGradGradGradGradGradGradGradGradGradGradGradGradGradGradGrad

                          Input orientation:                          
 ---------------------------------------------------------------------
 Center     Atomic      Atomic             Coordinates (Angstroms)
 Number     Number       Type             X           Y           Z
 ---------------------------------------------------------------------
      1          6           0       -5.807000    7.417000   15.370000
      2          6           0       -4.685000    7.777000   14.656000
      3          6           0       -4.763000    8.774000   13.695000
      4          6           0       -5.980000    9.403000   13.460000
      5          6           0       -7.130000    9.053000   14.169000
      6          6           0       -7.029000    8.049000   15.134000
      7          6           0       -8.476000    9.703000   13.953000
      8          7           0       -8.969000   10.163000   12.813000
      9          7           0      -10.208000   10.646000   13.101000
     10          7           0      -10.473000   10.497000   14.358000
     11          7           0       -9.395000    9.903000   14.908000
     12         17           0       -6.004000   10.646000   12.246000
     13          1           0       -8.507000   10.157000   11.893000
     14          1           0       -7.904000    7.758000   15.703000
     15          1           0       -3.882000    9.060000   13.131000
     16          1           0       -3.741000    7.279000   14.845000
     17          1           0       -5.740000    6.638000   16.121000
 ---------------------------------------------------------------------
                    Distance matrix (angstroms):
                    1          2          3          4          5
     1  C    0.000000
     2  C    1.377781   0.000000
     3  C    2.395206   1.386944   0.000000
     4  C    2.760838   2.398190   1.389948   0.000000
     5  C    2.422649   2.800602   2.430063   1.395593   0.000000
     6  C    1.395852   2.407655   2.780486   2.394993   1.396224
     7  C    3.789096   4.309915   3.836141   2.561848   1.510256
     8  N    4.906833   5.238540   4.516379   3.151243   2.540228
     9  N    5.911311   6.415038   5.788372   4.421528   3.626618
    10  N    5.681734   6.402199   6.001033   4.710657   3.646437
    11  N    4.389463   5.173730   4.919495   3.742850   2.529594
    12  Cl   4.497180   3.972282   2.672839   1.737648   2.739243
    13  H    5.185280   5.282637   4.379204   3.067529   2.880125
    14  H    2.150483   3.385045   3.863962   3.382137   2.151571
    15  H    3.379082   2.148610   1.084460   2.151161   3.409838
    16  H    2.136124   1.083910   2.145229   3.382709   3.884504
    17  H    1.084127   2.134613   3.376759   3.844964   3.402151
                    6          7          8          9         10
     6  C    0.000000
     7  C    2.494852   0.000000
     8  N    3.690479   1.324481   0.000000
     9  N    4.580779   2.148250   1.360645   0.000000
    10  N    4.296047   2.186886   2.181879   1.293242   0.000000
    11  N    3.014357   1.340368   2.153625   2.116192   1.348117
    12  Cl   4.016912   3.148632   3.057123   4.290063   4.945170
    13  H    4.139110   2.109663   1.029505   2.142845   3.171274
    14  H    1.083544   2.678191   3.907730   4.518779   3.988848
    15  H    3.864937   4.711048   5.214912   6.521853   6.856514
    16  H    3.389302   5.393669   6.307017   7.496687   7.477467
    17  H    2.150956   4.645443   5.813341   6.719188   6.356205
                   11         12         13         14         15
    11  N    0.000000
    12  Cl   4.374606   0.000000
    13  H    3.153297   2.574634   0.000000
    14  H    2.730592   4.888905   4.542566   0.000000
    15  H    5.853336   2.793117   4.911891   4.948421   0.000000
    16  H    6.233543   4.817952   6.301741   4.277403   2.475811
    17  H    5.048824   5.581163   6.157567   2.472250   4.272979
                   16         17
    16  H    0.000000
    17  H    2.456636   0.000000
 Stoichiometry    C7H5ClN4
 Framework group  C1[X(C7H5ClN4)]
 Deg. of freedom    45
 Full point group                 C1      NOp   1
 Largest Abelian subgroup         C1      NOp   1
 Largest concise Abelian subgroup C1      NOp   1
                         Standard orientation:                         
 ---------------------------------------------------------------------
 Center     Atomic      Atomic             Coordinates (Angstroms)
 Number     Number       Type             X           Y           Z
 ---------------------------------------------------------------------
      1          6           0       -2.298237   -1.882516    0.123705
      2          6           0       -3.110880   -0.772518    0.047569
      3          6           0       -2.551566    0.493579   -0.040628
      4          6           0       -1.168416    0.630530   -0.050445
      5          6           0       -0.325752   -0.479143    0.028454
      6          6           0       -0.909238   -1.744742    0.113569
      7          6           0        1.181663   -0.386751    0.022581
      8          7           0        1.926452    0.578210    0.540644
      9          7           0        3.220309    0.228383    0.306320
     10          7           0        3.279063   -0.896883   -0.328344
     11          7           0        2.005463   -1.298707   -0.512466
     12         17           0       -0.536452    2.244908   -0.168034
     13          1           0        1.593194    1.424183    1.023500
     14          1           0       -0.280739   -2.625410    0.172568
     15          1           0       -3.188013    1.369583   -0.100668
     16          1           0       -4.188403   -0.889535    0.058207
     17          1           0       -2.740800   -2.869903    0.191060
 ---------------------------------------------------------------------
 Rotational constants (GHZ):      1.4539207      0.6586340      0.4642289
 Standard basis: 6-31G(d) (6D, 7F)
 There are   194 symmetry adapted basis functions of A   symmetry.
 Integral buffers will be    131072 words long.
 Raffenetti 1 integral format.
 Two-electron integral symmetry is turned on.
   194 basis functions,   380 primitive gaussians,   194 cartesian basis functions
    46 alpha electrons       46 beta electrons
       nuclear repulsion energy       731.9852903065 Hartrees.
 NAtoms=   17 NActive=   17 NUniq=   17 SFac= 1.00D+00 NAtFMM=   60 NAOKFM=F Big=F
 One-electron integrals computed using PRISM.
 NBasis=   194 RedAO= T  NBF=   194
 NBsUse=   194 1.00D-06 NBFU=   194
 Harris functional with IExCor=  205 diagonalized for initial guess.
 ExpMin= 1.43D-01 ExpMax= 2.52D+04 ExpMxC= 3.78D+03 IAcc=1 IRadAn=         1 AccDes= 0.00D+00
 HarFok:  IExCor=  205 AccDes= 0.00D+00 IRadAn=         1 IDoV= 1
 ScaDFX=  1.000000  1.000000  1.000000  1.000000
 FoFCou: FMM=F IPFlag=           0 FMFlag=      100000 FMFlg1=           0
         NFxFlg=           0 DoJE=T BraDBF=F KetDBF=T FulRan=T
         Omega=  0.000000  0.000000  1.000000  0.000000  0.000000 ICntrl=     500 IOpCl=  0
         NMat0=    1 NMatS0=    1 NMatT0=    0 NMatD0=    1 NMtDS0=    0 NMtDT0=    0
         I1Cent=           4 NGrid=           0.
 Petite list used in FoFCou.
 Initial guess orbital symmetries:
       Occupied  (A) (A) (A) (A) (A) (A) (A) (A) (A) (A) (A) (A)
                 (A) (A) (A) (A) (A) (A) (A) (A) (A) (A) (A) (A)
                 (A) (A) (A) (A) (A) (A) (A) (A) (A) (A) (A) (A)
                 (A) (A) (A) (A) (A) (A) (A) (A) (A) (A)
       Virtual   (A) (A) (A) (A) (A) (A) (A) (A) (A) (A) (A) (A)
                 (A) (A) (A) (A) (A) (A) (A) (A) (A) (A) (A) (A)
                 (A) (A) (A) (A) (A) (A) (A) (A) (A) (A) (A) (A)
                 (A) (A) (A) (A) (A) (A) (A) (A) (A) (A) (A) (A)
                 (A) (A) (A) (A) (A) (A) (A) (A) (A) (A) (A) (A)
                 (A) (A) (A) (A) (A) (A) (A) (A) (A) (A) (A) (A)
                 (A) (A) (A) (A) (A) (A) (A) (A) (A) (A) (A) (A)
                 (A) (A) (A) (A) (A) (A) (A) (A) (A) (A) (A) (A)
                 (A) (A) (A) (A) (A) (A) (A) (A) (A) (A) (A) (A)
                 (A) (A) (A) (A) (A) (A) (A) (A) (A) (A) (A) (A)
                 (A) (A) (A) (A) (A) (A) (A) (A) (A) (A) (A) (A)
                 (A) (A) (A) (A) (A) (A) (A) (A) (A) (A) (A) (A)
                 (A) (A) (A) (A)
 The electronic state of the initial guess is 1-A.
 Requested convergence on RMS density matrix=1.00D-08 within 128 cycles.
 Requested convergence on MAX density matrix=1.00D-06.
 Requested convergence on             energy=1.00D-06.
 No special actions if energy rises.
 Integral accuracy reduced to 1.0D-05 until final iterations.
 Initial convergence to 1.0D-05 achieved.  Increase integral accuracy.
 SCF Done:  E(RHF) =  -945.190762358     A.U. after   16 cycles
             Convg  =    0.8011D-08             -V/T =  2.0016

 **********************************************************************

            Population analysis using the SCF density.

 **********************************************************************

 Orbital symmetries:
 BldTbl:  Degeneracy threshold= 1.00D-02
       Occupied  (A) (A) (A) (A) (A) (A) (A) (A) (A) (A) (A) (A)
                 (A) (A) (A) (A) (A) (A) (A) (A) (A) (A) (A) (A)
                 (A) (A) (A) (A) (A) (A) (A) (A) (A) (A) (A) (A)
                 (A) (A) (A) (A) (A) (A) (A) (A) (A) (A)
       Virtual   (A) (A) (A) (A) (A) (A) (A) (A) (A) (A) (A) (A)
                 (A) (A) (A) (A) (A) (A) (A) (A) (A) (A) (A) (A)
                 (A) (A) (A) (A) (A) (A) (A) (A) (A) (A) (A) (A)
                 (A) (A) (A) (A) (A) (A) (A) (A) (A) (A) (A) (A)
                 (A) (A) (A) (A) (A) (A) (A) (A) (A) (A) (A) (A)
                 (A) (A) (A) (A) (A) (A) (A) (A) (A) (A) (A) (A)
                 (A) (A) (A) (A) (A) (A) (A) (A) (A) (A) (A) (A)
                 (A) (A) (A) (A) (A) (A) (A) (A) (A) (A) (A) (A)
                 (A) (A) (A) (A) (A) (A) (A) (A) (A) (A) (A) (A)
                 (A) (A) (A) (A) (A) (A) (A) (A) (A) (A) (A) (A)
                 (A) (A) (A) (A) (A) (A) (A) (A) (A) (A) (A) (A)
                 (A) (A) (A) (A) (A) (A) (A) (A) (A) (A) (A) (A)
                 (A) (A) (A) (A)
 The electronic state is 1-A.
 Alpha  occ. eigenvalues -- -104.85801 -15.68476 -15.65569 -15.65398 -15.59518
 Alpha  occ. eigenvalues --  -11.34442 -11.33725 -11.29943 -11.27459 -11.27452
 Alpha  occ. eigenvalues --  -11.27129 -11.26535 -10.59191  -8.06123  -8.05803
 Alpha  occ. eigenvalues --   -8.05784  -1.48601  -1.26005  -1.22606  -1.17947
 Alpha  occ. eigenvalues --   -1.14797  -1.06089  -1.02383  -0.90778  -0.90099
 Alpha  occ. eigenvalues --   -0.85106  -0.84436  -0.77178  -0.71884  -0.68276
 Alpha  occ. eigenvalues --   -0.67104  -0.66198  -0.63432  -0.61337  -0.57480
 Alpha  occ. eigenvalues --   -0.57162  -0.54174  -0.53362  -0.49655  -0.48893
 Alpha  occ. eigenvalues --   -0.47636  -0.45254  -0.44901  -0.42081  -0.36049
 Alpha  occ. eigenvalues --   -0.35293
 Alpha virt. eigenvalues --    0.07946   0.10560   0.16014   0.17333   0.20911
 Alpha virt. eigenvalues --    0.21808   0.24104   0.27574   0.30391   0.31252
 Alpha virt. eigenvalues --    0.33209   0.36310   0.39041   0.41783   0.43991
 Alpha virt. eigenvalues --    0.44561   0.47116   0.48551   0.52691   0.53362
 Alpha virt. eigenvalues --    0.55527   0.59195   0.61195   0.63350   0.65997
 Alpha virt. eigenvalues --    0.70414   0.71387   0.72822   0.75039   0.77171
 Alpha virt. eigenvalues --    0.78324   0.78727   0.79641   0.80383   0.80751
 Alpha virt. eigenvalues --    0.81610   0.85134   0.85856   0.86911   0.88917
 Alpha virt. eigenvalues --    0.90662   0.90994   0.91246   0.94986   0.96329
 Alpha virt. eigenvalues --    0.96550   0.98168   0.99610   1.03113   1.04767
 Alpha virt. eigenvalues --    1.06510   1.07538   1.08061   1.08908   1.09216
 Alpha virt. eigenvalues --    1.11373   1.12994   1.13925   1.15381   1.17685
 Alpha virt. eigenvalues --    1.19087   1.20146   1.21756   1.23531   1.25123
 Alpha virt. eigenvalues --    1.27604   1.28769   1.31356   1.35166   1.37351
 Alpha virt. eigenvalues --    1.39660   1.40055   1.45538   1.48537   1.49657
 Alpha virt. eigenvalues --    1.56206   1.59732   1.61172   1.64806   1.65882
 Alpha virt. eigenvalues --    1.67553   1.67756   1.72520   1.72990   1.74258
 Alpha virt. eigenvalues --    1.74877   1.76063   1.81439   1.84912   1.88590
 Alpha virt. eigenvalues --    1.96237   2.04025   2.06813   2.08797   2.11858
 Alpha virt. eigenvalues --    2.14356   2.18990   2.22456   2.28051   2.31183
 Alpha virt. eigenvalues --    2.34162   2.35580   2.37502   2.40376   2.41982
 Alpha virt. eigenvalues --    2.43302   2.45697   2.51984   2.53636   2.55158
 Alpha virt. eigenvalues --    2.56830   2.59148   2.59756   2.60206   2.66214
 Alpha virt. eigenvalues --    2.70066   2.76835   2.82082   2.85749   2.87609
 Alpha virt. eigenvalues --    2.93623   2.95341   2.96488   2.97187   3.01956
 Alpha virt. eigenvalues --    3.04090   3.06185   3.09308   3.10285   3.13213
 Alpha virt. eigenvalues --    3.17780   3.31321   3.36822   3.45453   3.54208
 Alpha virt. eigenvalues --    3.75948   3.94623   4.09810   4.43263   4.44599
 Alpha virt. eigenvalues --    4.49702   4.49792   4.57193   4.62621   4.67283
 Alpha virt. eigenvalues --    4.76533   4.83298   5.11216
          Condensed to atoms (all electrons):
              1          2          3          4          5          6
     1  C    4.917003   0.545755  -0.039637  -0.040206  -0.040457   0.531875
     2  C    0.545755   4.870362   0.543744  -0.042977  -0.027157  -0.043120
     3  C   -0.039637   0.543744   4.951449   0.525208  -0.045191  -0.037913
     4  C   -0.040206  -0.042977   0.525208   5.114548   0.500771  -0.039914
     5  C   -0.040457  -0.027157  -0.045191   0.500771   4.864437   0.545791
     6  C    0.531875  -0.043120  -0.037913  -0.039914   0.545791   4.897195
     7  C    0.003287   0.000097   0.002670  -0.038092   0.377285  -0.031409
     8  N   -0.000063   0.000003   0.000001  -0.006229  -0.046955   0.002513
     9  N    0.000000   0.000000   0.000001  -0.000008   0.001439   0.000073
    10  N    0.000001   0.000000   0.000000  -0.000050   0.003300  -0.000004
    11  N    0.000243   0.000004  -0.000029   0.001967  -0.048918  -0.002005
    12  Cl   0.000140   0.002599  -0.071792   0.209793  -0.072712   0.002090
    13  H    0.000001  -0.000001   0.000010   0.000102   0.001182  -0.000116
    14  H   -0.026094   0.002204   0.000107   0.002618  -0.026743   0.376564
    15  H    0.002272  -0.023832   0.382006  -0.029062   0.001254   0.000266
    16  H   -0.028104   0.382117  -0.029002   0.002704   0.000175   0.002396
    17  H    0.381408  -0.029381   0.002618   0.000219   0.002070  -0.026004
              7          8          9         10         11         12
     1  C    0.003287  -0.000063   0.000000   0.000001   0.000243   0.000140
     2  C    0.000097   0.000003   0.000000   0.000000   0.000004   0.002599
     3  C    0.002670   0.000001   0.000001   0.000000  -0.000029  -0.071792
     4  C   -0.038092  -0.006229  -0.000008  -0.000050   0.001967   0.209793
     5  C    0.377285  -0.046955   0.001439   0.003300  -0.048918  -0.072712
     6  C   -0.031409   0.002513   0.000073  -0.000004  -0.002005   0.002090
     7  C    4.599181   0.260445  -0.122466  -0.094755   0.473359  -0.000533
     8  N    0.260445   7.064628   0.222394  -0.082783  -0.094306  -0.015550
     9  N   -0.122466   0.222394   6.705302   0.346668  -0.104800   0.000710
    10  N   -0.094755  -0.082783   0.346668   6.577381   0.288018  -0.000087
    11  N    0.473359  -0.094306  -0.104800   0.288018   6.909961   0.000031
    12  Cl  -0.000533  -0.015550   0.000710  -0.000087   0.000031  16.922561
    13  H   -0.017677   0.306257  -0.013255   0.002169   0.003460   0.007157
    14  H   -0.002740   0.000161   0.000023  -0.000097   0.004923  -0.000073
    15  H   -0.000083   0.000001   0.000000   0.000000   0.000000  -0.000051
    16  H    0.000003   0.000000   0.000000   0.000000   0.000000  -0.000101
    17  H   -0.000090   0.000000   0.000000   0.000000  -0.000004   0.000007
             13         14         15         16         17
     1  C    0.000001  -0.026094   0.002272  -0.028104   0.381408
     2  C   -0.000001   0.002204  -0.023832   0.382117  -0.029381
     3  C    0.000010   0.000107   0.382006  -0.029002   0.002618
     4  C    0.000102   0.002618  -0.029062   0.002704   0.000219
     5  C    0.001182  -0.026743   0.001254   0.000175   0.002070
     6  C   -0.000116   0.376564   0.000266   0.002396  -0.026004
     7  C   -0.017677  -0.002740  -0.000083   0.000003  -0.000090
     8  N    0.306257   0.000161   0.000001   0.000000   0.000000
     9  N   -0.013255   0.000023   0.000000   0.000000   0.000000
    10  N    0.002169  -0.000097   0.000000   0.000000   0.000000
    11  N    0.003460   0.004923   0.000000   0.000000  -0.000004
    12  Cl   0.007157  -0.000073  -0.000051  -0.000101   0.000007
    13  H    0.254178  -0.000004   0.000000   0.000000   0.000000
    14  H   -0.000004   0.406718   0.000008  -0.000094  -0.001223
    15  H    0.000000   0.000008   0.427562  -0.001552  -0.000098
    16  H    0.000000  -0.000094  -0.001552   0.447023  -0.001525
    17  H    0.000000  -0.001223  -0.000098  -0.001525   0.447281
 Mulliken atomic charges:
              1
     1  C   -0.207425
     2  C   -0.180414
     3  C   -0.184250
     4  C   -0.161393
     5  C    0.010430
     6  C   -0.178279
     7  C    0.591516
     8  N   -0.610517
     9  N   -0.036080
    10  N   -0.039762
    11  N   -0.431903
    12  Cl   0.015811
    13  H    0.456536
    14  H    0.263741
    15  H    0.241309
    16  H    0.225959
    17  H    0.224721
 Sum of Mulliken atomic charges =   0.00000
 Mulliken charges with hydrogens summed into heavy atoms:
              1
     1  C    0.017296
     2  C    0.045545
     3  C    0.057059
     4  C   -0.161393
     5  C    0.010430
     6  C    0.085462
     7  C    0.591516
     8  N   -0.153981
     9  N   -0.036080
    10  N   -0.039762
    11  N   -0.431903
    12  Cl   0.015811
 Sum of Mulliken charges with hydrogens summed into heavy atoms =   0.00000
 DipInt: DoE/N= T F RetVal/Mat= T F Init=T NMatP=  1 IDeriv=0 Min/MaxMlt=  0  4
 Entering OneElI...
 OneElI was handed    33455433 working-precision words.
 Multipole integrals L=0 to 4 MinM= 0 MaxM= 0.
 Requested accuracy = 0.1000D-12
 PrsmSu:  NPrtUS=   1 ThrOK=F IAlg=1 NPAlg=1 LenDen=           0.
 Prism:   IPart=     0 DynPar=F LinDyn=F Incr=          15.
 PRISM was handed    33292709 working-precision words and  1578 shell-pairs
 IPart=  0 NShTot=        1578 NBatch=          48 AvBLen=        32.9
 PrSmSu:  NxtVal=             16.
 Electronic moments (au):
        -92.00000000         -2.38334314          0.46463959          0.81796131
      -1474.70047579       -678.24848595        -83.21389424          6.29783646
          2.29212790         -0.48398708       -851.90263084       -416.21517176
         -4.14664673        733.86402758       1186.89190297        -33.25870710
        -76.31170623         10.82626510         89.45463920       -240.50278710
     -47139.47022900     -11323.43396259       -325.50162407      -1073.24678619
        333.51997557       -473.59821798        439.76773104         -4.84443254
        -36.46413862      -6627.99905103      -1420.67679390       -586.94293402
       -518.10153207        245.59942307         23.97518631
 Electronic spatial extent (au):  <R**2>=           2236.1629
 DipInt: DoE/N= F T RetVal/Mat= T F Init=T NMatP=  1 IDeriv=0 Min/MaxMlt=  0  4
 Nuclear    moments (au):
         92.00000000          0.00000000          0.00000000          0.00000000
       1413.08307475        624.47650623         25.42292504          0.00000000
          0.00000000          0.00000000        705.07559195        424.86620872
          7.69409686       -750.58509265      -1171.44894348         39.25301591
         88.47085677          2.42118074        -77.38432469        239.00453463
      41544.50600687       9123.86795458         29.83558328       1188.67447207
       -319.33380327        604.44025233       -457.31902524         22.65205883
         43.41113298       5380.25182958        432.55835278        128.50085559
        482.92418260       -213.78531372        -20.92263495
 Total      moments (au):
          0.00000000         -2.38334314          0.46463959          0.81796131
        -61.61740103        -53.77197972        -57.79096920          6.29783646
          2.29212790         -0.48398708       -146.82703889          8.65103696
          3.54745013        -16.72106506         15.44295948          5.99430881
         12.15915054         13.24744584         12.07031451         -1.49825247
      -5594.96422213      -2199.56600801       -295.66604079        115.42768588
         14.18617231        130.84203436        -17.55129420         17.80762629
          6.94699437      -1247.74722145       -988.11844112       -458.44207843
        -35.17734947         31.81410935          3.05255136
 Traceless Quadrup. (au):
         -3.89061772          3.95480360         -0.06418589          6.29783646
          2.29212790         -0.48398708
 Charge=              0.0000 electrons
 Dipole moment (field-independent basis, Debye):
    X=             -6.0579    Y=              1.1810    Z=              2.0791  Tot=              6.5127
 Quadrupole moment (field-independent basis, Debye-Ang):
   XX=            -82.8775   YY=            -72.3252   ZZ=            -77.7308
   XY=              8.4708   XZ=              3.0830   YZ=             -0.6510
 Traceless Quadrupole moment (field-independent basis, Debye-Ang):
   XX=             -5.2330   YY=              5.3193   ZZ=             -0.0863
   XY=              8.4708   XZ=              3.0830   YZ=             -0.6510
 Octapole moment (field-independent basis, Debye-Ang**2):
  XXX=           -104.5058  YYY=              6.1575  ZZZ=              2.5249  XYY=            -11.9014
  XXY=             10.9917  XXZ=              4.2665  XZZ=              8.6544  YZZ=              9.4290
  YYZ=              8.5912  XYZ=             -1.0664
 Hexadecapole moment (field-independent basis, Debye-Ang**3):
 XXXX=          -2107.3317 YYYY=           -828.4620 ZZZZ=           -111.3620 XXXY=             43.4756
 XXXZ=              5.3432 YYYX=             49.2814 YYYZ=             -6.6107 ZZZX=              6.7072
 ZZZY=              2.6166 XXYY=           -469.9614 XXZZ=           -372.1728 YYZZ=           -172.6713
 XXYZ=            -13.2495 YYXZ=             11.9827 ZZXY=              1.1497
 N-N= 7.319852903065D+02 E-N=-3.690767201625D+03  KE= 9.437059489464D+02
 Entering OneElI...
 OneElI was handed    33379542 working-precision words.
 Calculate electrostatic properties
    NBasis =   194  MinDer = 0  MaxDer = 0
    NGrid  =    17  NMatD  =   1
 Requested accuracy = 0.1000D-12
 PrsmSu:  NPrtUS=   1 ThrOK=F IAlg=1 NPAlg=1 LenDen=           0.
 Prism:   IPart=     0 DynPar=F LinDyn=F Incr=         251.
 PRISM was handed    33227918 working-precision words and  1477 shell-pairs
 IPart=  0 NShTot=       25109 NBatch=        1477 AvBLen=        17.0
 PrSmSu:  NxtVal=            252.
 --------------------------------------------------------
       Center         ----      EFG at Nuclei      ----
                      3XX-RR        3YY-RR        3ZZ-RR
 --------------------------------------------------------
     1   Atom        0.174416      0.159289     -0.333706
     2   Atom        0.164149      0.206051     -0.370200
     3   Atom        0.105678      0.188148     -0.293826
     4   Atom        0.291226     -0.201585     -0.089642
     5   Atom       -0.018168      0.194551     -0.176383
     6   Atom        0.218607      0.156068     -0.374676
     7   Atom        0.203175     -0.019116     -0.184059
     8   Atom       -0.429311      0.033348      0.395963
     9   Atom        0.091408      0.140412     -0.231821
    10   Atom        0.593818     -0.178143     -0.415676
    11   Atom       -0.637078      0.676388     -0.039310
    12   Atom        1.236653     -2.918455      1.681802
    13   Atom        0.097296     -0.171927      0.074631
    14   Atom       -0.004853     -0.156402      0.161255
    15   Atom       -0.014113     -0.151160      0.165273
    16   Atom       -0.304662      0.139199      0.165463
    17   Atom        0.067920     -0.232968      0.165048
 --------------------------------------------------------
                        XY            XZ            YZ
 --------------------------------------------------------
     1   Atom       -0.021908     -0.000871     -0.034331
     2   Atom       -0.021510     -0.000637     -0.039741
     3   Atom        0.016402     -0.000069     -0.033398
     4   Atom       -0.220535      0.014252      0.010012
     5   Atom        0.018301     -0.004194     -0.021194
     6   Atom       -0.020801      0.001856     -0.040865
     7   Atom       -0.079915     -0.060025      0.136349
     8   Atom        0.040018      0.051349     -0.350455
     9   Atom        0.888667      0.485387      0.252547
    10   Atom       -0.611278     -0.385266      0.237844
    11   Atom        0.247303      0.158813      0.566181
    12   Atom       -1.802909      0.060424      0.333855
    13   Atom        0.116350      0.068969     -0.209660
    14   Atom        0.208828     -0.017415      0.022303
    15   Atom        0.211829     -0.014466      0.021746
    16   Atom       -0.047915      0.004476      0.001956
    17   Atom       -0.168087      0.011464      0.027602
 --------------------------------------------------------


 ---------------------------------------------------------------------------------
              Nuclear Quadrupole in Principal Axis System
 ---------------------------------------------------------------------------------

       Atom             a.u.   MegaHertz   Gauss  10(-4) cm-1        Axes

              Baa    -0.3361   -45.101   -16.093   -15.044  0.0047  0.0693  0.9976
     1 C(13)  Bbb     0.1453    19.503     6.959     6.506  0.5996  0.7982 -0.0583
              Bcc     0.1908    25.598     9.134     8.539  0.8003 -0.5984  0.0378
 
              Baa    -0.3729   -50.044   -17.857   -16.693  0.0039  0.0686  0.9976
     2 C(13)  Bbb     0.1555    20.872     7.448     6.962  0.9277  0.3721 -0.0292
              Bcc     0.2174    29.172    10.409     9.731 -0.3732  0.9257 -0.0622
 
              Baa    -0.2961   -39.738   -14.180   -13.255 -0.0026  0.0689  0.9976
     3 C(13)  Bbb     0.1026    13.772     4.914     4.594  0.9831 -0.1826  0.0152
              Bcc     0.1935    25.966     9.265     8.661  0.1832  0.9808 -0.0672
 
              Baa    -0.2869   -38.502   -13.738   -12.843  0.3570  0.9312 -0.0731
     4 C(13)  Bbb    -0.0888   -11.915    -4.251    -3.974  0.0065  0.0757  0.9971
              Bcc     0.3757    50.416    17.990    16.817  0.9341 -0.3565  0.0209
 
              Baa    -0.1777   -23.839    -8.506    -7.952  0.0198  0.0559  0.9982
     5 C(13)  Bbb    -0.0197    -2.643    -0.943    -0.882  0.9961 -0.0866 -0.0150
              Bcc     0.1973    26.482     9.450     8.834  0.0856  0.9947 -0.0574
 
              Baa    -0.3778   -50.698   -18.090   -16.911 -0.0004  0.0763  0.9971
     6 C(13)  Bbb     0.1526    20.476     7.306     6.830  0.3016  0.9507 -0.0726
              Bcc     0.2252    30.221    10.784    10.081  0.9534 -0.3007  0.0234
 
              Baa    -0.2613   -35.068   -12.513   -11.697  0.0300 -0.4828  0.8752
     7 C(13)  Bbb     0.0077     1.032     0.368     0.344  0.4509  0.7880  0.4192
              Bcc     0.2536    34.036    12.145    11.353  0.8921 -0.3820 -0.2413
 
              Baa    -0.4439   -17.119    -6.108    -5.710  0.9742 -0.1809 -0.1350
     8 N(14)  Bbb    -0.1659    -6.398    -2.283    -2.134  0.2246  0.8359  0.5009
              Bcc     0.6097    23.517     8.391     7.844  0.0223 -0.5183  0.8549
 
              Baa    -0.8374   -32.297   -11.524   -10.773  0.7366 -0.5794 -0.3488
     9 N(14)  Bbb    -0.3585   -13.828    -4.934    -4.612  0.0274 -0.4898  0.8714
              Bcc     1.1959    46.124    16.458    15.385  0.6757  0.6515  0.3450
 
              Baa    -0.5630   -21.713    -7.748    -7.243  0.0351 -0.4844  0.8741
    10 N(14)  Bbb    -0.5056   -19.500    -6.958    -6.505  0.5480  0.7408  0.3885
              Bcc     1.0686    41.213    14.706    13.747  0.8357 -0.4654 -0.2915
 
              Baa    -0.6895   -26.592    -9.489    -8.870  0.9834 -0.1228 -0.1333
    11 N(14)  Bbb    -0.3501   -13.504    -4.819    -4.504  0.0562 -0.4925  0.8685
              Bcc     1.0396    40.096    14.307    13.375  0.1723  0.8616  0.4775
 
              Baa    -3.6127  -189.082   -67.469   -63.071  0.3485  0.9352 -0.0629
    12 Cl(35) Bbb     1.6867    88.278    31.500    29.446  0.2648 -0.0338  0.9637
              Bcc     1.9260   100.804    35.969    33.625  0.8991 -0.3525 -0.2594
 
              Baa    -0.3342  -178.340   -63.636   -59.488 -0.2990  0.8277  0.4749
    13 H(1)   Bbb     0.1396    74.487    26.579    24.846  0.9536  0.2775  0.1169
              Bcc     0.1946   103.853    37.057    34.642  0.0350 -0.4878  0.8723
 
              Baa    -0.3045  -162.463   -57.971   -54.192 -0.5731  0.8173 -0.0606
    14 H(1)   Bbb     0.1414    75.457    26.925    25.170  0.8145  0.5762  0.0673
              Bcc     0.1631    87.005    31.046    29.022 -0.0899  0.0108  0.9959
 
              Baa    -0.3067  -163.649   -58.394   -54.587 -0.5873  0.8075 -0.0552
    15 H(1)   Bbb     0.1400    74.673    26.645    24.908  0.8094  0.5859 -0.0408
              Bcc     0.1668    88.976    31.749    29.679  0.0006  0.0686  0.9976
 
              Baa    -0.3098  -165.306   -58.985   -55.140  0.9943  0.1061 -0.0098
    16 H(1)   Bbb     0.1442    76.944    27.456    25.666 -0.1066  0.9919 -0.0689
              Bcc     0.1656    88.362    31.530    29.474  0.0024  0.0695  0.9976
 
              Baa    -0.3100  -165.393   -59.016   -55.169  0.4072  0.9112 -0.0628
    17 H(1)   Bbb     0.1430    76.314    27.231    25.456  0.9133 -0.4059  0.0333
              Bcc     0.1670    89.078    31.785    29.713 -0.0048  0.0709  0.9975
 

 ---------------------------------------------------------------------------------

 No NMR shielding tensors so no spin-rotation constants.
 Leave Link  601 at Thu Jun 16 11:08:47 2016, MaxMem=   33554432 cpu:       0.3
 Merz-Kollman atomic radii used.
 Atom Element Radius
    1     6    1.50
    2     6    1.50
    3     6    1.50
    4     6    1.50
    5     6    1.50
    6     6    1.50
    7     6    1.50
    8     7    1.50
    9     7    1.50
   10     7    1.50
   11     7    1.50
   12    17    1.70
   13     1    1.20
   14     1    1.20
   15     1    1.20
   16     1    1.20
   17     1    1.20
 Generate VDW surfaces: Layer= 4 Dens= 6 Start= 1.400 Inc= 0.200

 **********************************************************************

            Electrostatic Properties Using The SCF Density

 **********************************************************************

       Atomic Center    1 is at  -2.298237 -1.882516  0.123705
       Atomic Center    2 is at  -3.110880 -0.772518  0.047569
       Atomic Center    3 is at  -2.551566  0.493579 -0.040628
       Atomic Center    4 is at  -1.168416  0.630530 -0.050445
       Atomic Center    5 is at  -0.325752 -0.479143  0.028454
       Atomic Center    6 is at  -0.909238 -1.744742  0.113569
       Atomic Center    7 is at   1.181663 -0.386751  0.022581
       Atomic Center    8 is at   1.926452  0.578210  0.540644
       Atomic Center    9 is at   3.220309  0.228383  0.306320
       Atomic Center   10 is at   3.279063 -0.896883 -0.328344
       Atomic Center   11 is at   2.005463 -1.298707 -0.512466
       Atomic Center   12 is at  -0.536452  2.244908 -0.168034
       Atomic Center   13 is at   1.593194  1.424183  1.023500
       Atomic Center   14 is at  -0.280739 -2.625410  0.172568
       Atomic Center   15 is at  -3.188013  1.369583 -0.100668
       Atomic Center   16 is at  -4.188403 -0.889535  0.058207
       Atomic Center   17 is at  -2.740800 -2.869903  0.191060
      ESP Fit Center   18 is at  -2.298237 -1.882516  2.223705
      ESP Fit Center   19 is at  -1.888548 -1.882516  2.183354
      ESP Fit Center   20 is at  -2.093393 -1.527714  2.183354
      ESP Fit Center   21 is at  -2.503082 -1.527714  2.183354
      ESP Fit Center   22 is at  -2.707927 -1.882516  2.183354
      ESP Fit Center   23 is at  -2.503082 -2.237318  2.183354
      ESP Fit Center   24 is at  -2.093393 -2.237318  2.183354
      ESP Fit Center   25 is at  -1.896420 -1.186548  2.063852
      ESP Fit Center   26 is at  -2.298237 -1.078881  2.063852
      ESP Fit Center   27 is at  -2.994206 -1.480699  2.063852
      ESP Fit Center   28 is at  -3.101873 -1.882516  2.063852
      ESP Fit Center   29 is at  -2.994206 -2.284334  2.063852
      ESP Fit Center   30 is at  -2.700055 -2.578485  2.063852
      ESP Fit Center   31 is at  -2.298237 -2.686151  2.063852
      ESP Fit Center   32 is at  -1.896420 -2.578485  2.063852
      ESP Fit Center   33 is at  -1.602269 -2.284334  2.063852
      ESP Fit Center   34 is at  -1.778196 -0.838131  1.869791
      ESP Fit Center   35 is at  -3.445070 -2.096896  1.869791
      ESP Fit Center   36 is at  -3.290184 -2.496703  1.869791
      ESP Fit Center   37 is at  -3.001330 -2.813561  1.869791
      ESP Fit Center   38 is at  -2.617519 -3.004676  1.869791
      ESP Fit Center   39 is at  -2.190588 -3.044237  1.869791
      ESP Fit Center   40 is at  -1.778196 -2.926901  1.869791
      ESP Fit Center   41 is at  -3.723012 -2.300868  1.608629
      ESP Fit Center   42 is at  -1.681378 -3.233251  1.608629
      ESP Fit Center   43 is at  -3.993586 -2.300382  1.290403
      ESP Fit Center   44 is at  -4.136824 -2.502008 -0.679930
      ESP Fit Center   45 is at  -1.679067 -3.515135 -1.042992
      ESP Fit Center   46 is at  -3.723012 -2.300868 -1.361219
      ESP Fit Center   47 is at  -3.547435 -2.685327 -1.361219
      ESP Fit Center   48 is at  -2.086911 -3.352326 -1.361219
      ESP Fit Center   49 is at  -1.681378 -3.233251 -1.361219
      ESP Fit Center   50 is at  -1.778196 -0.838131 -1.622381
      ESP Fit Center   51 is at  -3.445070 -2.096896 -1.622381
      ESP Fit Center   52 is at  -3.290184 -2.496703 -1.622381
      ESP Fit Center   53 is at  -3.001330 -2.813561 -1.622381
      ESP Fit Center   54 is at  -2.617519 -3.004676 -1.622381
      ESP Fit Center   55 is at  -2.190588 -3.044237 -1.622381
      ESP Fit Center   56 is at  -1.778196 -2.926901 -1.622381
      ESP Fit Center   57 is at  -1.896420 -1.186548 -1.816442
      ESP Fit Center   58 is at  -3.101873 -1.882516 -1.816442
      ESP Fit Center   59 is at  -2.994206 -2.284334 -1.816442
      ESP Fit Center   60 is at  -2.700055 -2.578485 -1.816442
      ESP Fit Center   61 is at  -2.298237 -2.686151 -1.816442
      ESP Fit Center   62 is at  -1.896420 -2.578485 -1.816442
      ESP Fit Center   63 is at  -1.602269 -2.284334 -1.816442
      ESP Fit Center   64 is at  -1.888548 -1.882516 -1.935944
      ESP Fit Center   65 is at  -2.093393 -1.527714 -1.935944
      ESP Fit Center   66 is at  -2.503082 -1.527714 -1.935944
      ESP Fit Center   67 is at  -2.707927 -1.882516 -1.935944
      ESP Fit Center   68 is at  -2.503082 -2.237318 -1.935944
      ESP Fit Center   69 is at  -2.093393 -2.237318 -1.935944
      ESP Fit Center   70 is at  -2.298237 -1.882516 -1.976295
      ESP Fit Center   71 is at  -3.110880 -0.772518  2.147569
      ESP Fit Center   72 is at  -2.701190 -0.772518  2.107218
      ESP Fit Center   73 is at  -2.906035 -0.417717  2.107218
      ESP Fit Center   74 is at  -3.315725 -0.417717  2.107218
      ESP Fit Center   75 is at  -3.520570 -0.772518  2.107218
      ESP Fit Center   76 is at  -3.315725 -1.127320  2.107218
      ESP Fit Center   77 is at  -2.906035 -1.127320  2.107218
      ESP Fit Center   78 is at  -2.307245 -0.772518  1.987716
      ESP Fit Center   79 is at  -2.414912 -0.370701  1.987716
      ESP Fit Center   80 is at  -2.709062 -0.076550  1.987716
      ESP Fit Center   81 is at  -3.110880  0.031117  1.987716
      ESP Fit Center   82 is at  -3.512698 -0.076550  1.987716
      ESP Fit Center   83 is at  -3.806849 -0.370701  1.987716
      ESP Fit Center   84 is at  -3.914515 -0.772518  1.987716
      ESP Fit Center   85 is at  -3.806849 -1.174336  1.987716
      ESP Fit Center   86 is at  -3.512698 -1.468487  1.987716
      ESP Fit Center   87 is at  -3.813972  0.158526  1.793655
      ESP Fit Center   88 is at  -4.102826 -0.158331  1.793655
      ESP Fit Center   89 is at  -4.257712 -0.558138  1.793655
      ESP Fit Center   90 is at  -4.257712 -0.986898  1.793655
      ESP Fit Center   91 is at  -4.102826 -1.386705  1.793655
      ESP Fit Center   92 is at  -3.813972 -1.703563  1.793655
      ESP Fit Center   93 is at  -4.083299  0.349713  1.532493
      ESP Fit Center   94 is at  -4.360078  0.030292  1.532493
      ESP Fit Center   95 is at  -4.083299 -1.894749  1.532493
      ESP Fit Center   96 is at  -4.417844  0.385351  1.214266
      ESP Fit Center   97 is at  -4.102770 -2.209519  1.214266
      ESP Fit Center   98 is at  -4.519418  0.561720  0.851204
      ESP Fit Center   99 is at  -4.199665 -2.378357 -0.756067
      ESP Fit Center  100 is at  -4.417844  0.385351 -1.119129
      ESP Fit Center  101 is at  -4.102770 -2.209519 -1.119129
      ESP Fit Center  102 is at  -4.360078  0.030292 -1.437356
      ESP Fit Center  103 is at  -4.083299 -1.894749 -1.437356
      ESP Fit Center  104 is at  -3.727740 -2.123253 -1.437356
      ESP Fit Center  105 is at  -1.944183 -0.772518 -1.698518
      ESP Fit Center  106 is at  -3.813972  0.158526 -1.698518
      ESP Fit Center  107 is at  -4.102826 -0.158331 -1.698518
      ESP Fit Center  108 is at  -4.257712 -0.558138 -1.698518
      ESP Fit Center  109 is at  -4.257712 -0.986898 -1.698518
      ESP Fit Center  110 is at  -4.102826 -1.386705 -1.698518
      ESP Fit Center  111 is at  -3.813972 -1.703563 -1.698518
      ESP Fit Center  112 is at  -3.430162 -1.894678 -1.698518
      ESP Fit Center  113 is at  -2.307245 -0.772518 -1.892578
      ESP Fit Center  114 is at  -3.512698 -0.076550 -1.892578
      ESP Fit Center  115 is at  -3.806849 -0.370701 -1.892578
      ESP Fit Center  116 is at  -3.914515 -0.772518 -1.892578
      ESP Fit Center  117 is at  -3.806849 -1.174336 -1.892578
      ESP Fit Center  118 is at  -3.512698 -1.468487 -1.892578
      ESP Fit Center  119 is at  -3.110880 -1.576153 -1.892578
      ESP Fit Center  120 is at  -2.414912 -1.174336 -1.892578
      ESP Fit Center  121 is at  -2.701190 -0.772518 -2.012081
      ESP Fit Center  122 is at  -2.906035 -0.417717 -2.012081
      ESP Fit Center  123 is at  -3.315725 -0.417717 -2.012081
      ESP Fit Center  124 is at  -3.520570 -0.772518 -2.012081
      ESP Fit Center  125 is at  -3.315725 -1.127320 -2.012081
      ESP Fit Center  126 is at  -2.906035 -1.127320 -2.012081
      ESP Fit Center  127 is at  -3.110880 -0.772518 -2.052431
      ESP Fit Center  128 is at  -2.551566  0.493579  2.059372
      ESP Fit Center  129 is at  -2.141876  0.493579  2.019021
      ESP Fit Center  130 is at  -2.346721  0.848381  2.019021
      ESP Fit Center  131 is at  -2.756411  0.848381  2.019021
      ESP Fit Center  132 is at  -2.961255  0.493579  2.019021
      ESP Fit Center  133 is at  -2.756411  0.138778  2.019021
      ESP Fit Center  134 is at  -2.346721  0.138778  2.019021
      ESP Fit Center  135 is at  -2.149748  1.189548  1.899519
      ESP Fit Center  136 is at  -2.551566  1.297214  1.899519
      ESP Fit Center  137 is at  -2.953383  1.189548  1.899519
      ESP Fit Center  138 is at  -3.247534  0.895397  1.899519
      ESP Fit Center  139 is at  -3.355201  0.493579  1.899519
      ESP Fit Center  140 is at  -2.149748 -0.202389  1.899519
      ESP Fit Center  141 is at  -1.855597  0.091762  1.899519
      ESP Fit Center  142 is at  -2.031524  1.537964  1.705458
      ESP Fit Center  143 is at  -2.443917  1.655300  1.705458
      ESP Fit Center  144 is at  -2.870848  1.615739  1.705458
      ESP Fit Center  145 is at  -3.254658  1.424624  1.705458
      ESP Fit Center  146 is at  -3.543512  1.107766  1.705458
      ESP Fit Center  147 is at  -3.698398  0.707959  1.705458
      ESP Fit Center  148 is at  -2.340239  1.963389  1.444296
      ESP Fit Center  149 is at  -2.762893  1.963389  1.444296
      ESP Fit Center  150 is at  -3.976340  0.911931  1.444296
      ESP Fit Center  151 is at  -4.036490  0.493579  1.444296
      ESP Fit Center  152 is at  -4.246914  0.911445  1.126069
      ESP Fit Center  153 is at  -4.480340  0.703346  0.763007
      ESP Fit Center  154 is at  -4.297652  0.493579 -1.207326
      ESP Fit Center  155 is at  -3.976340  0.911931 -1.525553
      ESP Fit Center  156 is at  -4.036490  0.493579 -1.525553
      ESP Fit Center  157 is at  -2.443917  1.655300 -1.786715
      ESP Fit Center  158 is at  -2.870848  1.615739 -1.786715
      ESP Fit Center  159 is at  -3.254658  1.424624 -1.786715
      ESP Fit Center  160 is at  -3.543512  1.107766 -1.786715
      ESP Fit Center  161 is at  -3.698398  0.707959 -1.786715
      ESP Fit Center  162 is at  -3.698398  0.279199 -1.786715
      ESP Fit Center  163 is at  -2.031524 -0.550805 -1.786715
      ESP Fit Center  164 is at  -2.149748  1.189548 -1.980775
      ESP Fit Center  165 is at  -2.551566  1.297214 -1.980775
      ESP Fit Center  166 is at  -2.953383  1.189548 -1.980775
      ESP Fit Center  167 is at  -3.247534  0.895397 -1.980775
      ESP Fit Center  168 is at  -3.355201  0.493579 -1.980775
      ESP Fit Center  169 is at  -3.247534  0.091762 -1.980775
      ESP Fit Center  170 is at  -2.953383 -0.202389 -1.980775
      ESP Fit Center  171 is at  -2.551566 -0.310056 -1.980775
      ESP Fit Center  172 is at  -2.149748 -0.202389 -1.980775
      ESP Fit Center  173 is at  -1.855597  0.091762 -1.980775
      ESP Fit Center  174 is at  -2.141876  0.493579 -2.100277
      ESP Fit Center  175 is at  -2.346721  0.848381 -2.100277
      ESP Fit Center  176 is at  -2.756411  0.848381 -2.100277
      ESP Fit Center  177 is at  -2.961255  0.493579 -2.100277
      ESP Fit Center  178 is at  -2.756411  0.138778 -2.100277
      ESP Fit Center  179 is at  -2.346721  0.138778 -2.100277
      ESP Fit Center  180 is at  -2.551566  0.493579 -2.140628
      ESP Fit Center  181 is at  -1.168416  0.630530  2.049555
      ESP Fit Center  182 is at  -0.758726  0.630530  2.009205
      ESP Fit Center  183 is at  -0.963571  0.985332  2.009205
      ESP Fit Center  184 is at  -1.373261  0.985332  2.009205
      ESP Fit Center  185 is at  -1.578106  0.630530  2.009205
      ESP Fit Center  186 is at  -1.373261  0.275728  2.009205
      ESP Fit Center  187 is at  -0.963571  0.275728  2.009205
      ESP Fit Center  188 is at  -0.364781  0.630530  1.889702
      ESP Fit Center  189 is at  -0.472448  1.032348  1.889702
      ESP Fit Center  190 is at  -1.570234  1.326498  1.889702
      ESP Fit Center  191 is at  -1.864385  1.032348  1.889702
      ESP Fit Center  192 is at  -1.570234 -0.065439  1.889702
      ESP Fit Center  193 is at  -1.871508  1.561575  1.695642
      ESP Fit Center  194 is at  -1.487698 -0.491630 -1.796531
      ESP Fit Center  195 is at  -0.364781  0.630530 -1.990592
      ESP Fit Center  196 is at  -1.864385  1.032348 -1.990592
      ESP Fit Center  197 is at  -1.570234 -0.065439 -1.990592
      ESP Fit Center  198 is at  -1.168416 -0.173105 -1.990592
      ESP Fit Center  199 is at  -0.766598 -0.065439 -1.990592
      ESP Fit Center  200 is at  -0.472448  0.228712 -1.990592
      ESP Fit Center  201 is at  -0.758726  0.630530 -2.110094
      ESP Fit Center  202 is at  -1.373261  0.985332 -2.110094
      ESP Fit Center  203 is at  -1.578106  0.630530 -2.110094
      ESP Fit Center  204 is at  -1.373261  0.275728 -2.110094
      ESP Fit Center  205 is at  -0.963571  0.275728 -2.110094
      ESP Fit Center  206 is at  -1.168416  0.630530 -2.150445
      ESP Fit Center  207 is at  -0.325752 -0.479143  2.128454
      ESP Fit Center  208 is at   0.083937 -0.479143  2.088103
      ESP Fit Center  209 is at  -0.120908 -0.124341  2.088103
      ESP Fit Center  210 is at  -0.530597 -0.124341  2.088103
      ESP Fit Center  211 is at  -0.735442 -0.479143  2.088103
      ESP Fit Center  212 is at  -0.530597 -0.833945  2.088103
      ESP Fit Center  213 is at  -0.120908 -0.833945  2.088103
      ESP Fit Center  214 is at   0.370216 -0.077325  1.968601
      ESP Fit Center  215 is at   0.076065  0.216826  1.968601
      ESP Fit Center  216 is at  -0.325752  0.324492  1.968601
      ESP Fit Center  217 is at  -0.727570  0.216826  1.968601
      ESP Fit Center  218 is at  -1.021721 -0.077325  1.968601
      ESP Fit Center  219 is at  -1.129388 -0.479143  1.968601
      ESP Fit Center  220 is at   0.076065 -1.175111  1.968601
      ESP Fit Center  221 is at   0.370216 -0.880961  1.968601
      ESP Fit Center  222 is at   0.194289  0.565242  1.774541
      ESP Fit Center  223 is at   0.194289  0.565242 -1.717632
      ESP Fit Center  224 is at  -1.472585 -0.693523 -1.717632
      ESP Fit Center  225 is at   0.194289 -1.523528 -1.717632
      ESP Fit Center  226 is at   0.370216 -0.077325 -1.911693
      ESP Fit Center  227 is at   0.076065  0.216826 -1.911693
      ESP Fit Center  228 is at  -1.129388 -0.479143 -1.911693
      ESP Fit Center  229 is at  -1.021721 -0.880961 -1.911693
      ESP Fit Center  230 is at  -0.727570 -1.175111 -1.911693
      ESP Fit Center  231 is at  -0.325752 -1.282778 -1.911693
      ESP Fit Center  232 is at   0.076065 -1.175111 -1.911693
      ESP Fit Center  233 is at   0.370216 -0.880961 -1.911693
      ESP Fit Center  234 is at   0.083937 -0.479143 -2.031195
      ESP Fit Center  235 is at  -0.120908 -0.124341 -2.031195
      ESP Fit Center  236 is at  -0.530597 -0.124341 -2.031195
      ESP Fit Center  237 is at  -0.735442 -0.479143 -2.031195
      ESP Fit Center  238 is at  -0.530597 -0.833945 -2.031195
      ESP Fit Center  239 is at  -0.120908 -0.833945 -2.031195
      ESP Fit Center  240 is at  -0.325752 -0.479143 -2.071546
      ESP Fit Center  241 is at  -0.909238 -1.744742  2.213569
      ESP Fit Center  242 is at  -0.499548 -1.744742  2.173218
      ESP Fit Center  243 is at  -0.704393 -1.389941  2.173218
      ESP Fit Center  244 is at  -1.114083 -1.389941  2.173218
      ESP Fit Center  245 is at  -1.318928 -1.744742  2.173218
      ESP Fit Center  246 is at  -1.114083 -2.099544  2.173218
      ESP Fit Center  247 is at  -0.704393 -2.099544  2.173218
      ESP Fit Center  248 is at  -0.105603 -1.744742  2.053716
      ESP Fit Center  249 is at  -0.213269 -1.342925  2.053716
      ESP Fit Center  250 is at  -0.507420 -1.048774  2.053716
      ESP Fit Center  251 is at  -0.909238 -0.941107  2.053716
      ESP Fit Center  252 is at  -1.311055 -1.048774  2.053716
      ESP Fit Center  253 is at  -1.605206 -1.342925  2.053716
      ESP Fit Center  254 is at  -1.311055 -2.440711  2.053716
      ESP Fit Center  255 is at  -0.909238 -2.548378  2.053716
      ESP Fit Center  256 is at  -0.507420 -2.440711  2.053716
      ESP Fit Center  257 is at  -0.213269 -2.146560  2.053716
      ESP Fit Center  258 is at   0.257460 -1.744742  1.859655
      ESP Fit Center  259 is at  -1.612330 -0.813698  1.859655
      ESP Fit Center  260 is at  -1.228520 -2.866902  1.859655
      ESP Fit Center  261 is at  -0.801589 -2.906463  1.859655
      ESP Fit Center  262 is at  -0.389196 -2.789127  1.859655
      ESP Fit Center  263 is at  -0.047038 -2.530742  1.859655
      ESP Fit Center  264 is at   0.178675 -2.166202  1.859655
      ESP Fit Center  265 is at   0.575686 -1.744742  1.598493
      ESP Fit Center  266 is at  -1.120565 -3.214552  1.598493
      ESP Fit Center  267 is at   0.515536 -2.163094  1.598493
      ESP Fit Center  268 is at  -1.119705 -3.478098 -1.053129
      ESP Fit Center  269 is at  -1.120565 -3.214552 -1.371356
      ESP Fit Center  270 is at  -0.697911 -3.214552 -1.371356
      ESP Fit Center  271 is at   0.257460 -1.744742 -1.632518
      ESP Fit Center  272 is at  -1.612330 -0.813698 -1.632518
      ESP Fit Center  273 is at  -1.228520 -2.866902 -1.632518
      ESP Fit Center  274 is at  -0.801589 -2.906463 -1.632518
      ESP Fit Center  275 is at  -0.389196 -2.789127 -1.632518
      ESP Fit Center  276 is at  -0.047038 -2.530742 -1.632518
      ESP Fit Center  277 is at   0.178675 -2.166202 -1.632518
      ESP Fit Center  278 is at  -0.105603 -1.744742 -1.826578
      ESP Fit Center  279 is at  -1.311055 -1.048774 -1.826578
      ESP Fit Center  280 is at  -1.605206 -1.342925 -1.826578
      ESP Fit Center  281 is at  -1.311055 -2.440711 -1.826578
      ESP Fit Center  282 is at  -0.909238 -2.548378 -1.826578
      ESP Fit Center  283 is at  -0.507420 -2.440711 -1.826578
      ESP Fit Center  284 is at  -0.213269 -2.146560 -1.826578
      ESP Fit Center  285 is at  -0.499548 -1.744742 -1.946081
      ESP Fit Center  286 is at  -0.704393 -1.389941 -1.946081
      ESP Fit Center  287 is at  -1.114083 -1.389941 -1.946081
      ESP Fit Center  288 is at  -1.318928 -1.744742 -1.946081
      ESP Fit Center  289 is at  -1.114083 -2.099544 -1.946081
      ESP Fit Center  290 is at  -0.704393 -2.099544 -1.946081
      ESP Fit Center  291 is at  -0.909238 -1.744742 -1.986431
      ESP Fit Center  292 is at   0.771973 -0.386751  2.082230
      ESP Fit Center  293 is at   0.976818 -0.741553  2.082230
      ESP Fit Center  294 is at   0.485694  0.015067  1.962728
      ESP Fit Center  295 is at   0.485694 -0.788569  1.962728
      ESP Fit Center  296 is at   0.779845 -1.082719  1.962728
      ESP Fit Center  297 is at   1.181663 -1.190386  1.962728
      ESP Fit Center  298 is at   1.583481 -1.082719  1.962728
      ESP Fit Center  299 is at   0.862381 -1.508911  1.768667
      ESP Fit Center  300 is at   1.289312 -1.548472  1.768667
      ESP Fit Center  301 is at   1.701705 -1.431136  1.768667
      ESP Fit Center  302 is at   2.043863 -1.172750  1.768667
      ESP Fit Center  303 is at   0.970336 -1.856561  1.507506
      ESP Fit Center  304 is at   1.392990 -1.856561  1.507506
      ESP Fit Center  305 is at   0.971196 -2.120106  1.189279
      ESP Fit Center  306 is at   1.392990  1.083059 -1.462343
      ESP Fit Center  307 is at   1.701705  0.657634 -1.723505
      ESP Fit Center  308 is at   1.289312  0.774970 -1.723505
      ESP Fit Center  309 is at   0.862381  0.735409 -1.723505
      ESP Fit Center  310 is at   0.478571  0.544294 -1.723505
      ESP Fit Center  311 is at   1.583481  0.309218 -1.917566
      ESP Fit Center  312 is at   1.181663  0.416884 -1.917566
      ESP Fit Center  313 is at   0.779845  0.309218 -1.917566
      ESP Fit Center  314 is at   0.485694  0.015067 -1.917566
      ESP Fit Center  315 is at   0.485694 -0.788569 -1.917566
      ESP Fit Center  316 is at   0.976818 -0.031949 -2.037068
      ESP Fit Center  317 is at   0.771973 -0.386751 -2.037068
      ESP Fit Center  318 is at   1.926452  0.578210  2.640644
      ESP Fit Center  319 is at   2.336141  0.578210  2.600293
      ESP Fit Center  320 is at   2.131297  0.933012  2.600293
      ESP Fit Center  321 is at   1.516762  0.578210  2.600293
      ESP Fit Center  322 is at   1.721607  0.223408  2.600293
      ESP Fit Center  323 is at   2.131297  0.223408  2.600293
      ESP Fit Center  324 is at   2.730087  0.578210  2.480791
      ESP Fit Center  325 is at   2.622420  0.980028  2.480791
      ESP Fit Center  326 is at   1.122816  0.578210  2.480791
      ESP Fit Center  327 is at   1.230483  0.176392  2.480791
      ESP Fit Center  328 is at   1.524634 -0.117759  2.480791
      ESP Fit Center  329 is at   1.926452 -0.225425  2.480791
      ESP Fit Center  330 is at   2.328269 -0.117759  2.480791
      ESP Fit Center  331 is at   2.622420  0.176392  2.480791
      ESP Fit Center  332 is at   3.014365  0.999670  2.286730
      ESP Fit Center  333 is at   2.788652  1.364209  2.286730
      ESP Fit Center  334 is at   0.779619  0.363830  2.286730
      ESP Fit Center  335 is at   0.934506 -0.035977  2.286730
      ESP Fit Center  336 is at   1.223359 -0.352835  2.286730
      ESP Fit Center  337 is at   1.607170 -0.543950  2.286730
      ESP Fit Center  338 is at   2.034101 -0.583511  2.286730
      ESP Fit Center  339 is at   2.446494 -0.466175  2.286730
      ESP Fit Center  340 is at   0.441527  0.578210  2.025568
      ESP Fit Center  341 is at   0.501677  0.159858  2.025568
      ESP Fit Center  342 is at   1.715125 -0.891600  2.025568
      ESP Fit Center  343 is at   2.137778 -0.891600  2.025568
      ESP Fit Center  344 is at   2.543312 -0.772525  2.025568
      ESP Fit Center  345 is at   3.182476  2.056916  1.344279
      ESP Fit Center  346 is at   3.015932  2.326119  0.950334
      ESP Fit Center  347 is at   3.093149  2.324296  0.540644
      ESP Fit Center  348 is at   3.015932  2.326119  0.130955
      ESP Fit Center  349 is at   2.641779  2.509650  0.130955
      ESP Fit Center  350 is at   2.835233  2.292353 -0.262991
      ESP Fit Center  351 is at   2.445496  2.447639 -0.262991
      ESP Fit Center  352 is at   2.031489  2.515512 -0.262991
      ESP Fit Center  353 is at   2.545622  2.210829 -0.626053
      ESP Fit Center  354 is at   2.136919  2.311565 -0.626053
      ESP Fit Center  355 is at   2.543312  1.928945 -0.944280
      ESP Fit Center  356 is at   2.137778  2.048020 -0.944280
      ESP Fit Center  357 is at   1.715125  2.048020 -0.944280
      ESP Fit Center  358 is at   2.446494  1.622595 -1.205442
      ESP Fit Center  359 is at   2.034101  1.739930 -1.205442
      ESP Fit Center  360 is at   1.607170  1.700369 -1.205442
      ESP Fit Center  361 is at   2.328269  1.274178 -1.399503
      ESP Fit Center  362 is at   1.926452  1.381845 -1.399503
      ESP Fit Center  363 is at   1.524634  1.274178 -1.399503
      ESP Fit Center  364 is at   2.131297  0.933012 -1.519005
      ESP Fit Center  365 is at   3.220309  0.228383  2.406320
      ESP Fit Center  366 is at   3.629999  0.228383  2.365969
      ESP Fit Center  367 is at   3.425154  0.583185  2.365969
      ESP Fit Center  368 is at   3.015465  0.583185  2.365969
      ESP Fit Center  369 is at   3.015465 -0.126418  2.365969
      ESP Fit Center  370 is at   3.425154 -0.126418  2.365969
      ESP Fit Center  371 is at   4.023945  0.228383  2.246467
      ESP Fit Center  372 is at   3.916278  0.630201  2.246467
      ESP Fit Center  373 is at   3.622127  0.924352  2.246467
      ESP Fit Center  374 is at   3.220309  1.032019  2.246467
      ESP Fit Center  375 is at   2.818492 -0.467585  2.246467
      ESP Fit Center  376 is at   3.220309 -0.575252  2.246467
      ESP Fit Center  377 is at   3.622127 -0.467585  2.246467
      ESP Fit Center  378 is at   3.916278 -0.173434  2.246467
      ESP Fit Center  379 is at   4.387007  0.228383  2.052406
      ESP Fit Center  380 is at   4.308222  0.649843  2.052406
      ESP Fit Center  381 is at   4.082509  1.014382  2.052406
      ESP Fit Center  382 is at   3.740351  1.272768  2.052406
      ESP Fit Center  383 is at   3.327959  1.390104  2.052406
      ESP Fit Center  384 is at   2.901027 -0.893776  2.052406
      ESP Fit Center  385 is at   3.327959 -0.933337  2.052406
      ESP Fit Center  386 is at   3.740351 -0.816001  2.052406
      ESP Fit Center  387 is at   4.082509 -0.557616  2.052406
      ESP Fit Center  388 is at   4.308222 -0.193076  2.052406
      ESP Fit Center  389 is at   4.705234  0.228383  1.791244
      ESP Fit Center  390 is at   4.645084  0.646735  1.791244
      ESP Fit Center  391 is at   4.469507  1.031194  1.791244
      ESP Fit Center  392 is at   4.192728  1.350614  1.791244
      ESP Fit Center  393 is at   3.837169  1.579118  1.791244
      ESP Fit Center  394 is at   3.431636  1.698193  1.791244
      ESP Fit Center  395 is at   2.603450 -1.122351  1.791244
      ESP Fit Center  396 is at   3.008983 -1.241427  1.791244
      ESP Fit Center  397 is at   3.431636 -1.241427  1.791244
      ESP Fit Center  398 is at   3.837169 -1.122351  1.791244
      ESP Fit Center  399 is at   4.192728 -0.893848  1.791244
      ESP Fit Center  400 is at   4.469507 -0.574427  1.791244
      ESP Fit Center  401 is at   4.645084 -0.189968  1.791244
      ESP Fit Center  402 is at   4.966396  0.228383  1.473018
      ESP Fit Center  403 is at   4.915657  0.646249  1.473018
      ESP Fit Center  404 is at   4.766392  1.039830  1.473018
      ESP Fit Center  405 is at   4.527274  1.386253  1.473018
      ESP Fit Center  406 is at   4.212199  1.665384  1.473018
      ESP Fit Center  407 is at   3.839480  1.861002  1.473018
      ESP Fit Center  408 is at   3.430777  1.961739  1.473018
      ESP Fit Center  409 is at   4.527274 -0.929486  1.473018
      ESP Fit Center  410 is at   4.766392 -0.583063  1.473018
      ESP Fit Center  411 is at   4.915657 -0.189482  1.473018
      ESP Fit Center  412 is at   5.160456  0.228383  1.109955
      ESP Fit Center  413 is at   5.115097  0.645458  1.109955
      ESP Fit Center  414 is at   4.981139  1.043030  1.109955
      ESP Fit Center  415 is at   4.764847  1.402510  1.109955
      ESP Fit Center  416 is at   4.476334  1.707090  1.109955
      ESP Fit Center  417 is at   4.129091  1.942527  1.109955
      ESP Fit Center  418 is at   3.739354  2.097812  1.109955
      ESP Fit Center  419 is at   3.325347  2.165685  1.109955
      ESP Fit Center  420 is at   4.981139 -0.586263  1.109955
      ESP Fit Center  421 is at   5.115097 -0.188691  1.109955
      ESP Fit Center  422 is at   5.279958  0.228383  0.716010
      ESP Fit Center  423 is at   5.237797  0.642988  0.716010
      ESP Fit Center  424 is at   5.113040  1.040618  0.716010
      ESP Fit Center  425 is at   4.910794  1.404995  0.716010
      ESP Fit Center  426 is at   4.639339  1.721202  0.716010
      ESP Fit Center  427 is at   4.309790  1.976293  0.716010
      ESP Fit Center  428 is at   3.935636  2.159824  0.716010
      ESP Fit Center  429 is at   3.532197  2.264281  0.716010
      ESP Fit Center  430 is at   5.113040 -0.583851  0.716010
      ESP Fit Center  431 is at   5.237797 -0.186221  0.716010
      ESP Fit Center  432 is at   5.320309  0.228383  0.306320
      ESP Fit Center  433 is at   5.279958  0.638073  0.306320
      ESP Fit Center  434 is at   5.160456  1.032019  0.306320
      ESP Fit Center  435 is at   4.966396  1.395081  0.306320
      ESP Fit Center  436 is at   4.705234  1.713308  0.306320
      ESP Fit Center  437 is at   4.387007  1.974470  0.306320
      ESP Fit Center  438 is at   4.023945  2.168530  0.306320
      ESP Fit Center  439 is at   3.629999  2.288032  0.306320
      ESP Fit Center  440 is at   3.220309  2.328383  0.306320
      ESP Fit Center  441 is at   5.279958 -0.181306  0.306320
      ESP Fit Center  442 is at   5.279958  0.228383 -0.103370
      ESP Fit Center  443 is at   5.237797  0.642988 -0.103370
      ESP Fit Center  444 is at   5.113040  1.040618 -0.103370
      ESP Fit Center  445 is at   4.910794  1.404995 -0.103370
      ESP Fit Center  446 is at   4.639339  1.721202 -0.103370
      ESP Fit Center  447 is at   4.309790  1.976293 -0.103370
      ESP Fit Center  448 is at   3.935636  2.159824 -0.103370
      ESP Fit Center  449 is at   3.532197  2.264281 -0.103370
      ESP Fit Center  450 is at   3.115990  2.285389 -0.103370
      ESP Fit Center  451 is at   5.160456  0.228383 -0.497315
      ESP Fit Center  452 is at   5.115097  0.645458 -0.497315
      ESP Fit Center  453 is at   4.981139  1.043030 -0.497315
      ESP Fit Center  454 is at   4.764847  1.402510 -0.497315
      ESP Fit Center  455 is at   4.476334  1.707090 -0.497315
      ESP Fit Center  456 is at   4.129091  1.942527 -0.497315
      ESP Fit Center  457 is at   3.739354  2.097812 -0.497315
      ESP Fit Center  458 is at   3.325347  2.165685 -0.497315
      ESP Fit Center  459 is at   2.906428  2.142972 -0.497315
      ESP Fit Center  460 is at   4.915657  0.646249 -0.860377
      ESP Fit Center  461 is at   4.766392  1.039830 -0.860377
      ESP Fit Center  462 is at   4.527274  1.386253 -0.860377
      ESP Fit Center  463 is at   4.212199  1.665384 -0.860377
      ESP Fit Center  464 is at   3.839480  1.861002 -0.860377
      ESP Fit Center  465 is at   3.430777  1.961739 -0.860377
      ESP Fit Center  466 is at   3.009842  1.961739 -0.860377
      ESP Fit Center  467 is at   4.645084  0.646735 -1.178604
      ESP Fit Center  468 is at   4.469507  1.031194 -1.178604
      ESP Fit Center  469 is at   4.192728  1.350614 -1.178604
      ESP Fit Center  470 is at   3.837169  1.579118 -1.178604
      ESP Fit Center  471 is at   3.431636  1.698193 -1.178604
      ESP Fit Center  472 is at   3.008983  1.698193 -1.178604
      ESP Fit Center  473 is at   2.603450  1.579118 -1.178604
      ESP Fit Center  474 is at   4.308222  0.649843 -1.439766
      ESP Fit Center  475 is at   4.082509  1.014382 -1.439766
      ESP Fit Center  476 is at   3.740351  1.272768 -1.439766
      ESP Fit Center  477 is at   3.327959  1.390104 -1.439766
      ESP Fit Center  478 is at   2.901027  1.350543 -1.439766
      ESP Fit Center  479 is at   2.517217  1.159428 -1.439766
      ESP Fit Center  480 is at   3.916278  0.630201 -1.633827
      ESP Fit Center  481 is at   3.622127  0.924352 -1.633827
      ESP Fit Center  482 is at   3.220309  1.032019 -1.633827
      ESP Fit Center  483 is at   2.818492  0.924352 -1.633827
      ESP Fit Center  484 is at   2.524341  0.630201 -1.633827
      ESP Fit Center  485 is at   2.583094 -1.298701  1.611803
      ESP Fit Center  486 is at   2.877245 -1.592852  1.611803
      ESP Fit Center  487 is at   3.279063 -1.700518  1.611803
      ESP Fit Center  488 is at   3.680881 -1.592852  1.611803
      ESP Fit Center  489 is at   3.975031 -1.298701  1.611803
      ESP Fit Center  490 is at   2.959781 -2.019043  1.417742
      ESP Fit Center  491 is at   3.386712 -2.058604  1.417742
      ESP Fit Center  492 is at   3.799105 -1.941268  1.417742
      ESP Fit Center  493 is at   4.141263 -1.682882  1.417742
      ESP Fit Center  494 is at   4.366976 -1.318343  1.417742
      ESP Fit Center  495 is at   3.067736 -2.366693  1.156580
      ESP Fit Center  496 is at   3.490390 -2.366693  1.156580
      ESP Fit Center  497 is at   3.895923 -2.247618  1.156580
      ESP Fit Center  498 is at   4.251482 -2.019114  1.156580
      ESP Fit Center  499 is at   4.528261 -1.699694  1.156580
      ESP Fit Center  500 is at   4.703837 -1.315235  1.156580
      ESP Fit Center  501 is at   5.025149 -0.896883  0.838354
      ESP Fit Center  502 is at   3.068596 -2.630238  0.838354
      ESP Fit Center  503 is at   3.489530 -2.630238  0.838354
      ESP Fit Center  504 is at   3.898234 -2.529502  0.838354
      ESP Fit Center  505 is at   4.270953 -2.333884  0.838354
      ESP Fit Center  506 is at   4.586027 -2.054752  0.838354
      ESP Fit Center  507 is at   4.825146 -1.708330  0.838354
      ESP Fit Center  508 is at   4.974411 -1.314749  0.838354
      ESP Fit Center  509 is at   5.219210 -0.896883  0.475291
      ESP Fit Center  510 is at   3.384100 -2.834185  0.475291
      ESP Fit Center  511 is at   3.798107 -2.766312  0.475291
      ESP Fit Center  512 is at   4.187844 -2.611026  0.475291
      ESP Fit Center  513 is at   4.535088 -2.375590  0.475291
      ESP Fit Center  514 is at   4.823601 -2.071010  0.475291
      ESP Fit Center  515 is at   5.039893 -1.711530  0.475291
      ESP Fit Center  516 is at   5.173850 -1.313957  0.475291
      ESP Fit Center  517 is at   5.338712 -0.896883  0.081346
      ESP Fit Center  518 is at   5.296551 -0.482279  0.081346
      ESP Fit Center  519 is at   3.174743 -2.953889  0.081346
      ESP Fit Center  520 is at   3.590951 -2.932781  0.081346
      ESP Fit Center  521 is at   3.994390 -2.828323  0.081346
      ESP Fit Center  522 is at   4.368543 -2.644793  0.081346
      ESP Fit Center  523 is at   4.698093 -2.389702  0.081346
      ESP Fit Center  524 is at   4.969548 -2.073495  0.081346
      ESP Fit Center  525 is at   5.171794 -1.709118  0.081346
      ESP Fit Center  526 is at   5.296551 -1.311487  0.081346
      ESP Fit Center  527 is at   5.379063 -0.896883 -0.328344
      ESP Fit Center  528 is at   5.338712 -0.487193 -0.328344
      ESP Fit Center  529 is at   5.219210 -0.093248 -0.328344
      ESP Fit Center  530 is at   3.279063 -2.996883 -0.328344
      ESP Fit Center  531 is at   3.688753 -2.956532 -0.328344
      ESP Fit Center  532 is at   4.082698 -2.837030 -0.328344
      ESP Fit Center  533 is at   4.445760 -2.642969 -0.328344
      ESP Fit Center  534 is at   4.763987 -2.381807 -0.328344
      ESP Fit Center  535 is at   5.025149 -2.063581 -0.328344
      ESP Fit Center  536 is at   5.219210 -1.700518 -0.328344
      ESP Fit Center  537 is at   5.338712 -1.306573 -0.328344
      ESP Fit Center  538 is at   5.338712 -0.896883 -0.738033
      ESP Fit Center  539 is at   5.296551 -0.482279 -0.738033
      ESP Fit Center  540 is at   5.171794 -0.084648 -0.738033
      ESP Fit Center  541 is at   3.590951 -2.932781 -0.738033
      ESP Fit Center  542 is at   3.994390 -2.828323 -0.738033
      ESP Fit Center  543 is at   4.368543 -2.644793 -0.738033
      ESP Fit Center  544 is at   4.698093 -2.389702 -0.738033
      ESP Fit Center  545 is at   4.969548 -2.073495 -0.738033
      ESP Fit Center  546 is at   5.171794 -1.709118 -0.738033
      ESP Fit Center  547 is at   5.296551 -1.311487 -0.738033
      ESP Fit Center  548 is at   5.219210 -0.896883 -1.131979
      ESP Fit Center  549 is at   5.173850 -0.479809 -1.131979
      ESP Fit Center  550 is at   5.039893 -0.082237 -1.131979
      ESP Fit Center  551 is at   4.823601  0.277244 -1.131979
      ESP Fit Center  552 is at   3.384100 -2.834185 -1.131979
      ESP Fit Center  553 is at   3.798107 -2.766312 -1.131979
      ESP Fit Center  554 is at   4.187844 -2.611026 -1.131979
      ESP Fit Center  555 is at   4.535088 -2.375590 -1.131979
      ESP Fit Center  556 is at   4.823601 -2.071010 -1.131979
      ESP Fit Center  557 is at   5.039893 -1.711530 -1.131979
      ESP Fit Center  558 is at   5.173850 -1.313957 -1.131979
      ESP Fit Center  559 is at   5.025149 -0.896883 -1.495041
      ESP Fit Center  560 is at   4.974411 -0.479017 -1.495041
      ESP Fit Center  561 is at   4.825146 -0.085436 -1.495041
      ESP Fit Center  562 is at   4.586027  0.260986 -1.495041
      ESP Fit Center  563 is at   4.270953  0.540118 -1.495041
      ESP Fit Center  564 is at   3.489530 -2.630238 -1.495041
      ESP Fit Center  565 is at   3.898234 -2.529502 -1.495041
      ESP Fit Center  566 is at   4.270953 -2.333884 -1.495041
      ESP Fit Center  567 is at   4.586027 -2.054752 -1.495041
      ESP Fit Center  568 is at   4.825146 -1.708330 -1.495041
      ESP Fit Center  569 is at   4.974411 -1.314749 -1.495041
      ESP Fit Center  570 is at   4.763987 -0.896883 -1.813268
[...]
 5440 Fit       0.009748
 5441 Fit       0.008695
 5442 Fit       0.007785
 5443 Fit       0.006994
 5444 Fit       0.006336
 5445 Fit       0.005851
 5446 Fit       0.005602
 5447 Fit       0.005664
 5448 Fit       0.006120
 5449 Fit       0.007050
 5450 Fit       0.008527
 5451 Fit       0.010596
 5452 Fit       0.018652
 5453 Fit       0.015547
 5454 Fit       0.013340
 5455 Fit       0.011709
 5456 Fit       0.010436
 5457 Fit       0.009379
 5458 Fit       0.008455
 5459 Fit       0.007626
 5460 Fit       0.006894
 5461 Fit       0.006291
 5462 Fit       0.005872
 5463 Fit       0.005712
 5464 Fit       0.005900
 5465 Fit       0.006533
 5466 Fit       0.007717
 5467 Fit       0.009563
 5468 Fit       0.012192
 5469 Fit       0.019000
 5470 Fit       0.015906
 5471 Fit       0.013726
 5472 Fit       0.012132
 5473 Fit       0.010900
 5474 Fit       0.009882
 5475 Fit       0.008985
 5476 Fit       0.008163
 5477 Fit       0.007407
 5478 Fit       0.006736
 5479 Fit       0.006199
 5480 Fit       0.005861
 5481 Fit       0.005805
 5482 Fit       0.006127
 5483 Fit       0.006937
 5484 Fit       0.008362
 5485 Fit       0.010557
 5486 Fit       0.013733
 5487 Fit       0.018214
 5488 Fit       0.015425
 5489 Fit       0.013453
 5490 Fit       0.012010
 5491 Fit       0.010892
 5492 Fit       0.009960
 5493 Fit       0.009126
 5494 Fit       0.008345
 5495 Fit       0.007605
 5496 Fit       0.006926
 5497 Fit       0.006349
 5498 Fit       0.005941
 5499 Fit       0.005781
 5500 Fit       0.005964
 5501 Fit       0.006602
 5502 Fit       0.007825
 5503 Fit       0.009797
 5504 Fit       0.012749
 5505 Fit       0.016744
 5506 Fit       0.014446
 5507 Fit       0.012791
 5508 Fit       0.011563
 5509 Fit       0.010598
 5510 Fit       0.009782
 5511 Fit       0.009038
 5512 Fit       0.008324
 5513 Fit       0.007629
 5514 Fit       0.006970
 5515 Fit       0.006386
 5516 Fit       0.005936
 5517 Fit       0.005695
 5518 Fit       0.005752
 5519 Fit       0.006209
 5520 Fit       0.007187
 5521 Fit       0.008834
 5522 Fit       0.011348
 5523 Fit       0.016640
 5524 Fit       0.014383
 5525 Fit       0.012714
 5526 Fit       0.011480
 5527 Fit       0.010538
 5528 Fit       0.009768
 5529 Fit       0.009085
 5530 Fit       0.008431
 5531 Fit       0.007780
 5532 Fit       0.007134
 5533 Fit       0.006521
 5534 Fit       0.005991
 5535 Fit       0.005610
 5536 Fit       0.005464
 5537 Fit       0.005648
 5538 Fit       0.006273
 5539 Fit       0.007468
 5540 Fit       0.009392
 5541 Fit       0.012260
 5542 Fit       0.015104
 5543 Fit       0.013405
 5544 Fit       0.011997
 5545 Fit       0.010898
 5546 Fit       0.010049
 5547 Fit       0.009369
 5548 Fit       0.008779
 5549 Fit       0.008221
 5550 Fit       0.007656
 5551 Fit       0.007075
 5552 Fit       0.006492
 5553 Fit       0.005944
 5554 Fit       0.005488
 5555 Fit       0.005199
 5556 Fit       0.005164
 5557 Fit       0.005481
 5558 Fit       0.006259
 5559 Fit       0.007620
 5560 Fit       0.009708
 5561 Fit       0.012702
 5562 Fit       0.011236
 5563 Fit       0.010416
 5564 Fit       0.009653
 5565 Fit       0.009015
 5566 Fit       0.008487
 5567 Fit       0.008025
 5568 Fit       0.007582
 5569 Fit       0.007122
 5570 Fit       0.006629
 5571 Fit       0.006112
 5572 Fit       0.005601
 5573 Fit       0.005149
 5574 Fit       0.004826
 5575 Fit       0.004717
 5576 Fit       0.004915
 5577 Fit       0.005519
 5578 Fit       0.006631
 5579 Fit       0.008355
 5580 Fit       0.010787
 5581 Fit       0.008247
 5582 Fit       0.008178
 5583 Fit       0.007903
 5584 Fit       0.007577
 5585 Fit       0.007264
 5586 Fit       0.006968
 5587 Fit       0.006666
 5588 Fit       0.006334
 5589 Fit       0.005955
 5590 Fit       0.005533
 5591 Fit       0.005093
 5592 Fit       0.004680
 5593 Fit       0.004358
 5594 Fit       0.004205
 5595 Fit       0.004306
 5596 Fit       0.004751
 5597 Fit       0.005620
 5598 Fit       0.006982
 5599 Fit       0.008872
 5600 Fit       0.011253
 5601 Fit       0.005142
 5602 Fit       0.005627
 5603 Fit       0.005809
 5604 Fit       0.005816
 5605 Fit       0.005742
 5606 Fit       0.005622
 5607 Fit       0.005458
 5608 Fit       0.005237
 5609 Fit       0.004951
 5610 Fit       0.004610
 5611 Fit       0.004245
 5612 Fit       0.003909
 5613 Fit       0.003675
 5614 Fit       0.003630
 5615 Fit       0.003860
 5616 Fit       0.004447
 5617 Fit       0.005447
 5618 Fit       0.006871
 5619 Fit       0.008643
 5620 Fit       0.010546
 5621 Fit       0.002673
 5622 Fit       0.003281
 5623 Fit       0.003734
 5624 Fit       0.004011
 5625 Fit       0.004156
 5626 Fit       0.004209
 5627 Fit       0.004184
 5628 Fit       0.004079
 5629 Fit       0.003894
 5630 Fit       0.003644
 5631 Fit       0.003367
 5632 Fit       0.003123
 5633 Fit       0.002994
 5634 Fit       0.003067
 5635 Fit       0.003424
 5636 Fit       0.004122
 5637 Fit       0.005166
 5638 Fit       0.006474
 5639 Fit       0.007839
 5640 Fit       0.008898
 5641 Fit       0.001543
 5642 Fit       0.001961
 5643 Fit       0.002343
 5644 Fit       0.002632
 5645 Fit       0.002824
 5646 Fit       0.002922
 5647 Fit       0.002928
 5648 Fit       0.002845
 5649 Fit       0.002691
 5650 Fit       0.002511
 5651 Fit       0.002371
 5652 Fit       0.002354
 5653 Fit       0.002545
 5654 Fit       0.003005
 5655 Fit       0.003747
 5656 Fit       0.004704
 5657 Fit       0.005695
 5658 Fit       0.006431
 5659 Fit       0.006580
 5660 Fit       0.001239
 5661 Fit       0.001238
 5662 Fit       0.000734
 5663 Fit       0.001024
 5664 Fit       0.001336
 5665 Fit       0.001597
 5666 Fit       0.001777
 5667 Fit       0.001863
 5668 Fit       0.001858
 5669 Fit       0.001789
 5670 Fit       0.001711
 5671 Fit       0.001707
 5672 Fit       0.001864
 5673 Fit       0.002246
 5674 Fit       0.002859
 5675 Fit       0.003609
 5676 Fit       0.004295
 5677 Fit       0.004646
 5678 Fit       0.004446
 5679 Fit       0.003696
 5680 Fit       0.001064
 5681 Fit       0.001241
 5682 Fit       0.001191
 5683 Fit       0.000935
 5684 Fit       0.000665
 5685 Fit       0.000582
 5686 Fit       0.000174
 5687 Fit       0.000370
 5688 Fit       0.000613
 5689 Fit       0.000828
 5690 Fit       0.000971
 5691 Fit       0.001036
 5692 Fit       0.001054
 5693 Fit       0.001091
 5694 Fit       0.001237
 5695 Fit       0.001559
 5696 Fit       0.002058
 5697 Fit       0.002625
 5698 Fit       0.003052
 5699 Fit       0.003122
 5700 Fit       0.002766
 5701 Fit       0.002140
 5702 Fit       0.001511
 5703 Fit       0.001063
 5704 Fit       0.000833
 5705 Fit       0.000749
 5706 Fit       0.000662
 5707 Fit       0.000475
 5708 Fit       0.000247
 5709 Fit       0.000120
 5710 Fit      -0.000170
 5711 Fit      -0.000038
 5712 Fit       0.000155
 5713 Fit       0.000325
 5714 Fit       0.000446
 5715 Fit       0.000561
 5716 Fit       0.000760
 5717 Fit       0.001108
 5718 Fit       0.001553
 5719 Fit       0.001906
 5720 Fit       0.001953
 5721 Fit       0.001657
 5722 Fit       0.001205
 5723 Fit       0.000804
 5724 Fit       0.000516
 5725 Fit       0.000277
 5726 Fit       0.000032
 5727 Fit      -0.000149
 5728 Fit      -0.000316
 5729 Fit      -0.000228
 5730 Fit      -0.000057
 5731 Fit       0.000129
 5732 Fit       0.000380
 5733 Fit       0.000732
 5734 Fit       0.001033
 5735 Fit       0.001039
 5736 Fit       0.000749
 5737 Fit       0.000377
 5738 Fit       0.000042
 5739 Fit      -0.000219
 5740 Fit      -0.000272
 5741 Fit      -0.000171
 5742 Fit       0.000111
 5743 Fit       0.000393
 5744 Fit       0.000296
 5745 Fit      -0.000061
 5746 Fit      -0.000037
 5747 Fit       0.018907
 5748 Fit       0.019149
 5749 Fit       0.017960
 5750 Fit       0.019701
 5751 Fit       0.020225
 5752 Fit       0.016119
 5753 Fit       0.018896
 5754 Fit       0.020574
 5755 Fit       0.021124
 5756 Fit       0.013787
 5757 Fit       0.017458
 5758 Fit       0.020006
 5759 Fit       0.021488
 5760 Fit       0.015212
 5761 Fit       0.018555
 5762 Fit       0.020840
 5763 Fit       0.022168
 5764 Fit       0.013381
 5765 Fit       0.017368
 5766 Fit       0.020165
 5767 Fit       0.021984
 5768 Fit       0.015747
 5769 Fit       0.018996
 5770 Fit       0.021238
 5771 Fit       0.014375
 5772 Fit       0.017889
 5773 Fit       0.020361
 5774 Fit       0.013998
 5775 Fit       0.017460
 5776 Fit       0.019873
 5777 Fit       0.014033
 5778 Fit       0.017186
 5779 Fit       0.013751
 5780 Fit       0.016426
 5781 Fit       0.003878
 5782 Fit       0.001287
 5783 Fit      -0.001424
 5784 Fit      -0.003561
 5785 Fit       0.006404
 5786 Fit       0.003855
 5787 Fit       0.000876
 5788 Fit      -0.002476
 5789 Fit      -0.005924
 5790 Fit       0.009680
 5791 Fit       0.007147
 5792 Fit       0.004327
 5793 Fit       0.001084
 5794 Fit      -0.002701
 5795 Fit      -0.007054
 5796 Fit       0.010464
 5797 Fit       0.007656
 5798 Fit       0.004686
 5799 Fit       0.001334
 5800 Fit      -0.002611
 5801 Fit      -0.007346
 5802 Fit       0.012652
 5803 Fit       0.009465
 5804 Fit       0.006352
 5805 Fit       0.002995
 5806 Fit      -0.000893
 5807 Fit      -0.005612
 5808 Fit      -0.011495
 5809 Fit       0.011089
 5810 Fit       0.007850
 5811 Fit       0.004550
 5812 Fit       0.000861
 5813 Fit      -0.003541
 5814 Fit      -0.009031
 5815 Fit       0.013403
 5816 Fit       0.009901
 5817 Fit       0.006622
 5818 Fit       0.003175
 5819 Fit      -0.000771
 5820 Fit      -0.005573
 5821 Fit      -0.011685
 5822 Fit       0.010087
 5823 Fit       0.006716
 5824 Fit       0.003200
 5825 Fit      -0.000824
 5826 Fit      -0.005746
 5827 Fit      -0.012071
 5828 Fit       0.010742
 5829 Fit       0.007359
 5830 Fit       0.003890
 5831 Fit      -0.000030
 5832 Fit      -0.004796
 5833 Fit      -0.010911
 5834 Fit       0.007501
 5835 Fit       0.004270
 5836 Fit       0.000612
 5837 Fit      -0.003810
 5838 Fit      -0.009432
 5839 Fit       0.005789
 5840 Fit       0.002656
 5841 Fit      -0.001148
 5842 Fit      -0.005946
 5843 Fit      -0.012205
 5844 Fit       0.000829
 5845 Fit      -0.003007
 5846 Fit      -0.008032
 5847 Fit      -0.003891
 5848 Fit      -0.008825
 5849 Fit       0.012587
 5850 Fit       0.013821
 5851 Fit       0.014745
 5852 Fit       0.013809
 5853 Fit       0.014999
 5854 Fit       0.015931
 5855 Fit       0.016676
 5856 Fit       0.017290
 5857 Fit       0.013940
 5858 Fit       0.015286
 5859 Fit       0.016352
 5860 Fit       0.017239
 5861 Fit       0.018045
 5862 Fit       0.018865
 5863 Fit       0.013907
 5864 Fit       0.015368
 5865 Fit       0.016516
 5866 Fit       0.017470
 5867 Fit       0.018327
 5868 Fit       0.019193
 5869 Fit       0.020189
 5870 Fit       0.021462
 5871 Fit       0.014725
 5872 Fit       0.016106
 5873 Fit       0.017210
 5874 Fit       0.018152
 5875 Fit       0.019038
 5876 Fit       0.019985
 5877 Fit       0.021147
 5878 Fit       0.022745
 5879 Fit       0.015383
 5880 Fit       0.016652
 5881 Fit       0.017689
 5882 Fit       0.018600
 5883 Fit       0.019486
 5884 Fit       0.020467
 5885 Fit       0.021709
 5886 Fit       0.023464
 5887 Fit       0.014866
 5888 Fit       0.016235
 5889 Fit       0.017335
 5890 Fit       0.018273
 5891 Fit       0.019146
 5892 Fit       0.020058
 5893 Fit       0.021146
 5894 Fit       0.022609
 5895 Fit       0.015126
 5896 Fit       0.016428
 5897 Fit       0.017484
 5898 Fit       0.018402
 5899 Fit       0.019281
 5900 Fit       0.020241
 5901 Fit       0.021436
 5902 Fit       0.023102
 5903 Fit       0.014175
 5904 Fit       0.015638
 5905 Fit       0.016790
 5906 Fit       0.017753
 5907 Fit       0.018632
 5908 Fit       0.019541
 5909 Fit       0.020621
 5910 Fit       0.022061
 5911 Fit       0.013020
 5912 Fit       0.014628
 5913 Fit       0.015865
 5914 Fit       0.016862
 5915 Fit       0.017722
 5916 Fit       0.018546
 5917 Fit       0.019441
 5918 Fit       0.020525
 5919 Fit       0.012817
 5920 Fit       0.014344
 5921 Fit       0.015509
 5922 Fit       0.016430
 5923 Fit       0.017209
 5924 Fit       0.017930
 5925 Fit       0.018648
 5926 Fit       0.012494
 5927 Fit       0.013876
 5928 Fit       0.014900
 5929 Fit       0.015654
 5930 Fit       0.016194
 5931 Fit       0.010908
 5932 Fit       0.012426
 5933 Fit       0.013494
 5934 Fit       0.014134
 5935 Fit       0.016542
 5936 Fit       0.016616
 5937 Fit       0.016539
 5938 Fit       0.016316
 5939 Fit       0.017857
 5940 Fit       0.017866
 5941 Fit       0.017839
 5942 Fit       0.017787
 5943 Fit       0.017708
 5944 Fit       0.017612
 5945 Fit       0.017499
 5946 Fit       0.019479
 5947 Fit       0.019165
 5948 Fit       0.018957
 5949 Fit       0.018826
 5950 Fit       0.018736
 5951 Fit       0.018675
 5952 Fit       0.018655
 5953 Fit       0.018711
 5954 Fit       0.018889
 5955 Fit       0.021405
 5956 Fit       0.020587
 5957 Fit       0.020071
 5958 Fit       0.019759
 5959 Fit       0.019571
 5960 Fit       0.019457
 5961 Fit       0.019397
 5962 Fit       0.019399
 5963 Fit       0.019503
 5964 Fit       0.019778
 5965 Fit       0.020329
 5966 Fit       0.022466
 5967 Fit       0.021366
 5968 Fit       0.020709
 5969 Fit       0.020319
 5970 Fit       0.020088
 5971 Fit       0.019952
 5972 Fit       0.019885
 5973 Fit       0.019895
 5974 Fit       0.020022
 5975 Fit       0.020349
 5976 Fit       0.021015
 5977 Fit       0.022247
 5978 Fit       0.022919
 5979 Fit       0.021739
 5980 Fit       0.021039
 5981 Fit       0.020622
 5982 Fit       0.020372
 5983 Fit       0.020223
 5984 Fit       0.020149
 5985 Fit       0.020152
 5986 Fit       0.020269
 5987 Fit       0.020577
 5988 Fit       0.021211
 5989 Fit       0.022404
 5990 Fit       0.023888
 5991 Fit       0.022338
 5992 Fit       0.021421
 5993 Fit       0.020872
 5994 Fit       0.020540
 5995 Fit       0.020338
 5996 Fit       0.020219
 5997 Fit       0.020172
 5998 Fit       0.020212
 5999 Fit       0.020389
 6000 Fit       0.020798
 6001 Fit       0.021602
 6002 Fit       0.022961
 6003 Fit       0.021708
 6004 Fit       0.020967
 6005 Fit       0.020523
 6006 Fit       0.020253
 6007 Fit       0.020088
 6008 Fit       0.019995
 6009 Fit       0.019977
 6010 Fit       0.020068
 6011 Fit       0.020340
 6012 Fit       0.020921
 6013 Fit       0.022030
 6014 Fit       0.022556
 6015 Fit       0.021306
 6016 Fit       0.020563
 6017 Fit       0.020119
 6018 Fit       0.019848
 6019 Fit       0.019676
 6020 Fit       0.019573
 6021 Fit       0.019539
 6022 Fit       0.019610
 6023 Fit       0.019858
 6024 Fit       0.020408
 6025 Fit       0.021453
 6026 Fit       0.021492
 6027 Fit       0.020472
 6028 Fit       0.019838
 6029 Fit       0.019449
 6030 Fit       0.019202
 6031 Fit       0.019035
 6032 Fit       0.018919
 6033 Fit       0.018854
 6034 Fit       0.018869
 6035 Fit       0.019023
 6036 Fit       0.019395
 6037 Fit       0.019302
 6038 Fit       0.018836
 6039 Fit       0.018527
 6040 Fit       0.018317
 6041 Fit       0.018155
 6042 Fit       0.018014
 6043 Fit       0.017894
 6044 Fit       0.017815
 6045 Fit       0.017803
 6046 Fit       0.017393
 6047 Fit       0.017293
 6048 Fit       0.017175
 6049 Fit       0.017032
 6050 Fit       0.016847
 6051 Fit       0.016612
 6052 Fit       0.016311
 6053 Fit       0.015749
 6054 Fit       0.015723
 6055 Fit       0.015523
 6056 Fit       0.015134
 6057 Fit       0.013869
 6058 Fit       0.013400
 6059 Fit       0.012753
 6060 Fit       0.011952
 6061 Fit       0.015770
 6062 Fit       0.015280
 6063 Fit       0.014740
 6064 Fit       0.014141
 6065 Fit       0.013478
 6066 Fit       0.012765
 6067 Fit       0.012034
 6068 Fit       0.017439
 6069 Fit       0.016709
 6070 Fit       0.016067
 6071 Fit       0.015457
 6072 Fit       0.014840
 6073 Fit       0.014202
 6074 Fit       0.013561
 6075 Fit       0.012971
 6076 Fit       0.012512
 6077 Fit       0.020331
 6078 Fit       0.018992
 6079 Fit       0.017991
 6080 Fit       0.017208
 6081 Fit       0.016546
 6082 Fit       0.015933
 6083 Fit       0.015330
 6084 Fit       0.014727
 6085 Fit       0.014145
 6086 Fit       0.013645
 6087 Fit       0.013338
 6088 Fit       0.022053
 6089 Fit       0.020195
 6090 Fit       0.018914
 6091 Fit       0.017977
 6092 Fit       0.017233
 6093 Fit       0.016582
 6094 Fit       0.015966
 6095 Fit       0.015358
 6096 Fit       0.014767
 6097 Fit       0.014238
 6098 Fit       0.013870
 6099 Fit       0.013850
 6100 Fit       0.021025
 6101 Fit       0.019543
 6102 Fit       0.018493
 6103 Fit       0.017688
 6104 Fit       0.017009
 6105 Fit       0.016385
 6106 Fit       0.015779
 6107 Fit       0.015183
 6108 Fit       0.014623
 6109 Fit       0.014167
 6110 Fit       0.013954
 6111 Fit       0.014252
 6112 Fit       0.022351
 6113 Fit       0.020435
 6114 Fit       0.019136
 6115 Fit       0.018189
 6116 Fit       0.017436
 6117 Fit       0.016780
 6118 Fit       0.016162
 6119 Fit       0.015554
 6120 Fit       0.014956
 6121 Fit       0.014401
 6122 Fit       0.013967
 6123 Fit       0.013807
 6124 Fit       0.020855
 6125 Fit       0.019342
 6126 Fit       0.018270
 6127 Fit       0.017445
 6128 Fit       0.016746
 6129 Fit       0.016097
 6130 Fit       0.015459
 6131 Fit       0.014823
 6132 Fit       0.014208
 6133 Fit       0.013677
 6134 Fit       0.013362
 6135 Fit       0.013521
 6136 Fit       0.019828
 6137 Fit       0.018493
 6138 Fit       0.017516
 6139 Fit       0.016731
 6140 Fit       0.016036
 6141 Fit       0.015364
 6142 Fit       0.014684
 6143 Fit       0.013997
 6144 Fit       0.013337
 6145 Fit       0.012791
 6146 Fit       0.012524
 6147 Fit       0.018390
 6148 Fit       0.017324
 6149 Fit       0.016485
 6150 Fit       0.015763
 6151 Fit       0.015078
 6152 Fit       0.014382
 6153 Fit       0.013656
 6154 Fit       0.012908
 6155 Fit       0.012182
 6156 Fit       0.011564
 6157 Fit       0.016552
 6158 Fit       0.015754
 6159 Fit       0.015036
 6160 Fit       0.014333
 6161 Fit       0.013594
 6162 Fit       0.012789
 6163 Fit       0.011920
 6164 Fit       0.011015
 6165 Fit       0.014557
 6166 Fit       0.013992
 6167 Fit       0.013348
 6168 Fit       0.012604
 6169 Fit       0.011737
 6170 Fit       0.010737
 6171 Fit       0.012240
 6172 Fit       0.011634
 6173 Fit       0.010770
 -----------------------------------------------------------------
 Leave Link  602 at Thu Jun 16 11:23:25 2016, MaxMem=   33554432 cpu:       1.7

 Test job not archived.
 1\1\GINC-NODE42\FOpt\RHF\6-31G(d)\C7H5Cl1N4\DAVE\16-Jun-2016\0\\#HF/6-
 31G* SCF=tight Test Pop=MK iop(6/33=2) iop(6/42=6) opt\\remark line go
 es here\\0,1\C,-5.8203488342,7.4784911217,15.4271245401\C,-4.695056196
 9,7.7796321922,14.6769057824\C,-4.7743276252,8.711732258,13.6608186392
 \C,-5.9786317344,9.3404797467,13.393399436\C,-7.1238495277,9.052724630
 1,14.1300610942\C,-7.0159969671,8.1085412795,15.1537508081\C,-8.457158
 5625,9.6591131588,13.9396595938\N,-8.9368649173,10.3375005537,12.89663
 71524\N,-10.1973506988,10.6595492927,13.1447124955\N,-10.4699117974,10
 .1996122826,14.2774311939\N,-9.420309818,9.5715988022,14.8070984007\Cl
 ,-5.9683498073,10.5190116146,12.100458377\H,-8.5054688138,10.611253823
 8,12.0453671992\H,-7.8926715771,7.8843878397,15.72880126\H,-3.91078443
 9,8.9594242045,13.074351267\H,-3.7580211711,7.2942906222,14.879471738\
 H,-5.7678975121,6.7556565771,16.2199510227\\Version=EM64L-G09RevC.01\S
 tate=1-A\HF=-945.2078254\RMSD=8.443e-09\RMSF=1.590e-05\Dipole=2.162173
 5,-0.8096063,-0.4701943\Quadrupole=-6.3560417,3.2198829,3.1361588,-0.3
 549236,4.5886718,-4.3675315\PG=C01 [X(C7H5Cl1N4)]\\@


 THERE IS MUCH PLEASURE TO BE GAINED FROM USELESS KNOWLEDGE

                                       -- BERTRAND RUSSELL
 Job cpu time:  0 days  0 hours 15 minutes 22.2 seconds.
 File lengths (MBytes):  RWF=     37 Int=      0 D2E=      0 Chk=      4 Scr=      1
 Normal termination of Gaussian 09 at Thu Jun 16 11:23:25 2016.
