 Entering Gaussian System, Link 0=/usr/local/g09_c01/g09
 Initial command:
 /usr/local/g09_c01/l1.exe /scr/gf/dave/81321/Gau-21644.inp -scrdir=/scr/gf/dave/81321/
 Entering Link 1 = /usr/local/g09_c01/l1.exe PID=     21646.
  
 Copyright (c) 1988,1990,1992,1993,1995,1998,2003,2009,2011,
            Gaussian, Inc.  All Rights Reserved.
  
 This is part of the Gaussian(R) 09 program.  It is based on
 the Gaussian(R) 03 system (copyright 2003, Gaussian, Inc.),
 the Gaussian(R) 98 system (copyright 1998, Gaussian, Inc.),
 the Gaussian(R) 94 system (copyright 1995, Gaussian, Inc.),
 the Gaussian 92(TM) system (copyright 1992, Gaussian, Inc.),
 the Gaussian 90(TM) system (copyright 1990, Gaussian, Inc.),
 the Gaussian 88(TM) system (copyright 1988, Gaussian, Inc.),
 the Gaussian 86(TM) system (copyright 1986, Carnegie Mellon
 University), and the Gaussian 82(TM) system (copyright 1983,
 Carnegie Mellon University). Gaussian is a federally registered
 trademark of Gaussian, Inc.
  
 This software contains proprietary and confidential information,
 including trade secrets, belonging to Gaussian, Inc.
  
 This software is provided under written license and may be
 used, copied, transmitted, or stored only in accord with that
 written license.
  
 The following legend is applicable only to US Government
 contracts under FAR:
  
                    RESTRICTED RIGHTS LEGEND
  
 Use, reproduction and disclosure by the US Government is
 subject to restrictions as set forth in subparagraphs (a)
 and (c) of the Commercial Computer Software - Restricted
 Rights clause in FAR 52.227-19.
  
 Gaussian, Inc.
 340 Quinnipiac St., Bldg. 40, Wallingford CT 06492
  
  
 ---------------------------------------------------------------
 Warning -- This program may not be used in any manner that
 competes with the business of Gaussian, Inc. or will provide
 assistance to any competitor of Gaussian, Inc.  The licensee
 of this program is prohibited from giving any competitor of
 Gaussian, Inc. access to this program.  By using this program,
 the user acknowledges that Gaussian, Inc. is engaged in the
 business of creating and licensing software in the field of
 computational chemistry and represents and warrants to the
 licensee that it is not a competitor of Gaussian, Inc. and that
 it will not use this program in any manner prohibited above.
 ---------------------------------------------------------------
  

 Cite this work as:
 Gaussian 09, Revision C.01,
 M. J. Frisch, G. W. Trucks, H. B. Schlegel, G. E. Scuseria, 
 M. A. Robb, J. R. Cheeseman, G. Scalmani, V. Barone, B. Mennucci, 
 G. A. Petersson, H. Nakatsuji, M. Caricato, X. Li, H. P. Hratchian, 
 A. F. Izmaylov, J. Bloino, G. Zheng, J. L. Sonnenberg, M. Hada, 
 M. Ehara, K. Toyota, R. Fukuda, J. Hasegawa, M. Ishida, T. Nakajima, 
 Y. Honda, O. Kitao, H. Nakai, T. Vreven, J. A. Montgomery, Jr., 
 J. E. Peralta, F. Ogliaro, M. Bearpark, J. J. Heyd, E. Brothers, 
 K. N. Kudin, V. N. Staroverov, T. Keith, R. Kobayashi, J. Normand, 
 K. Raghavachari, A. Rendell, J. C. Burant, S. S. Iyengar, J. Tomasi, 
 M. Cossi, N. Rega, J. M. Millam, M. Klene, J. E. Knox, J. B. Cross, 
 V. Bakken, C. Adamo, J. Jaramillo, R. Gomperts, R. E. Stratmann, 
 O. Yazyev, A. J. Austin, R. Cammi, C. Pomelli, J. W. Ochterski, 
 R. L. Martin, K. Morokuma, V. G. Zakrzewski, G. A. Voth, 
 P. Salvador, J. J. Dannenberg, S. Dapprich, A. D. Daniels, 
 O. Farkas, J. B. Foresman, J. V. Ortiz, J. Cioslowski, 
 and D. J. Fox, Gaussian, Inc., Wallingford CT, 2010.
 
 ******************************************
 Gaussian 09:  EM64L-G09RevC.01 23-Sep-2011
                22-Jun-2016 
 ******************************************
 %chk=molecule
 ------------------------------------------------------------
 #HF/6-31G* SCF=tight Test Pop=MK iop(6/33=2) iop(6/42=6) opt
 ------------------------------------------------------------
 1/18=20,19=15,38=1/1,3;
 2/9=110,12=2,17=6,18=5,40=1/2;
 3/5=1,6=6,7=1,11=9,16=1,25=1,30=1,71=1/1,2,3;
 4//1;
 5/5=2,32=2,38=5/2;
 6/7=2,8=2,9=2,10=2,15=8,20=1,28=1,33=2,42=6/1,2;
 7//1,2,3,16;
 1/18=20,19=15/3(2);
 2/9=110/2;
 99//99;
 2/9=110/2;
 3/5=1,6=6,7=1,11=9,16=1,25=1,30=1,71=1/1,2,3;
 4/5=5,16=3/1;
 5/5=2,32=2,38=5/2;
 7//1,2,3,16;
 1/18=20,19=15/3(-5);
 2/9=110/2;
 6/7=2,8=2,9=2,10=2,15=8,19=2,20=1,28=1,33=2,42=6/1,2;
 99/9=1/99;
 ---------------------
 remark line goes here
 ---------------------
 Charge = -1 Multiplicity = 1
 Symbolic Z-Matrix:
 C                     3.93     -0.367     8.853 
 C                     2.261    -0.708     7.17 
 C                     4.841    -1.067     8.084 
 C                     3.173    -1.437     6.429 
 C                    -4.563     9.274     12.995 
 C                    -3.201     9.083     12.844 
 C                    -3.16      7.634     14.767 
 C                     4.476    -1.602     6.859 
 C                    -5.247     8.644     14.037 
 C                     2.648    -0.165     8.378 
 C                    -2.499     8.256     13.714 
 C                    -4.524     7.831     14.911 
 C                    -6.916     8.005     15.367 
 C                    -0.419     6.898     13.62 
 C                     6.885    -4.492     5.984 
 C                     1.918     4.018     12.237 
 C                    -8.313     7.881     15.902 
 C                     2.139     1.083     10.377 
 C                     5.442    -2.436     6.057 
 C                     1.008     6.991     13.144 
 C                     1.26      2.263     10.655 
 C                     1.89      5.936     13.766 
 C                     6.052    -3.601     6.859 
 N                    -6.609     8.738     14.322 
 N                    -1.107     8.06      13.553 
 N                     1.444     2.783     12.004 
 N                     1.489     4.592     13.373 
 O                    -0.894     5.846     14.039 
 O                     6.441    -5.489     5.437 
 O                     2.727     4.564     11.488 
 O                     8.102    -4.063     5.852 
 O                     1.727     0.533     9.121 
 S                    -5.589     7.189     16.127 
 H                     0.873     4.078     13.97 
 H                     1.21      2.2       12.782 
 H                    -0.567     8.881     13.368 
 H                     2.929     6.106     13.445 
 H                     1.827     6.02      14.861 
 H                     0.21      1.959     10.532 
 H                     1.498     3.058     9.933 
 H                     1.025     6.867     12.051 
 H                     1.404     7.983     13.406 
 H                     4.909    -2.851     5.189 
 H                     6.259    -1.787     5.709 
 H                     3.191     1.401     10.323 
 H                     2.024     0.332     11.173 
 H                    -8.62      6.824     15.883 
 H                    -8.344     8.253     16.937 
 H                    -8.999     8.473     15.279 
 H                    -2.618     7.005     15.464 
 H                    -2.676     9.583     12.039 
 H                    -5.1       9.913     12.304 
 H                     2.86     -1.887     5.494 
 H                     5.856    -1.198     8.444 
 H                     1.251    -0.564     6.804 
 H                     4.22      0.02      9.824 
 H                     6.686    -3.192     7.659 
 H                     5.239    -4.194     7.303 
 

 GradGradGradGradGradGradGradGradGradGradGradGradGradGradGradGradGradGrad
 Berny optimization.
 Initialization pass.
                           ----------------------------
                           !    Initial Parameters    !
                           ! (Angstroms and Degrees)  !
 --------------------------                            --------------------------
 ! Name  Definition              Value          Derivative Info.                !
 --------------------------------------------------------------------------------
 ! R1    R(1,3)                  1.3825         estimate D2E/DX2                !
 ! R2    R(1,10)                 1.382          estimate D2E/DX2                !
 ! R3    R(1,56)                 1.0848         estimate D2E/DX2                !
 ! R4    R(2,4)                  1.3828         estimate D2E/DX2                !
 ! R5    R(2,10)                 1.3798         estimate D2E/DX2                !
 ! R6    R(2,55)                 1.0839         estimate D2E/DX2                !
 ! R7    R(3,8)                  1.3857         estimate D2E/DX2                !
 ! R8    R(3,54)                 1.0849         estimate D2E/DX2                !
 ! R9    R(4,8)                  1.382          estimate D2E/DX2                !
 ! R10   R(4,53)                 1.0838         estimate D2E/DX2                !
 ! R11   R(5,6)                  1.3836         estimate D2E/DX2                !
 ! R12   R(5,9)                  1.3966         estimate D2E/DX2                !
 ! R13   R(5,52)                 1.0836         estimate D2E/DX2                !
 ! R14   R(6,11)                 1.3906         estimate D2E/DX2                !
 ! R15   R(6,51)                 1.0834         estimate D2E/DX2                !
 ! R16   R(7,11)                 1.3902         estimate D2E/DX2                !
 ! R17   R(7,12)                 1.3857         estimate D2E/DX2                !
 ! R18   R(7,50)                 1.0841         estimate D2E/DX2                !
 ! R19   R(8,19)                 1.5073         estimate D2E/DX2                !
 ! R20   R(9,12)                 1.3956         estimate D2E/DX2                !
 ! R21   R(9,24)                 1.3947         estimate D2E/DX2                !
 ! R22   R(10,32)                1.3739         estimate D2E/DX2                !
 ! R23   R(11,25)                1.4149         estimate D2E/DX2                !
 ! R24   R(12,33)                1.7393         estimate D2E/DX2                !
 ! R25   R(13,17)                1.5011         estimate D2E/DX2                !
 ! R26   R(13,24)                1.3128         estimate D2E/DX2                !
 ! R27   R(13,33)                1.7333         estimate D2E/DX2                !
 ! R28   R(14,20)                1.5072         estimate D2E/DX2                !
 ! R29   R(14,25)                1.3521         estimate D2E/DX2                !
 ! R30   R(14,28)                1.228          estimate D2E/DX2                !
 ! R31   R(15,23)                1.5011         estimate D2E/DX2                !
 ! R32   R(15,29)                1.2208         estimate D2E/DX2                !
 ! R33   R(15,31)                1.2971         estimate D2E/DX2                !
 ! R34   R(16,26)                1.3432         estimate D2E/DX2                !
 ! R35   R(16,27)                1.3431         estimate D2E/DX2                !
 ! R36   R(16,30)                1.2303         estimate D2E/DX2                !
 ! R37   R(17,47)                1.1008         estimate D2E/DX2                !
 ! R38   R(17,48)                1.1003         estimate D2E/DX2                !
 ! R39   R(17,49)                1.0996         estimate D2E/DX2                !
 ! R40   R(18,21)                1.4974         estimate D2E/DX2                !
 ! R41   R(18,32)                1.4317         estimate D2E/DX2                !
 ! R42   R(18,45)                1.1003         estimate D2E/DX2                !
 ! R43   R(18,46)                1.1004         estimate D2E/DX2                !
 ! R44   R(19,23)                1.5403         estimate D2E/DX2                !
 ! R45   R(19,43)                1.0999         estimate D2E/DX2                !
 ! R46   R(19,44)                1.0999         estimate D2E/DX2                !
 ! R47   R(20,22)                1.5092         estimate D2E/DX2                !
 ! R48   R(20,41)                1.1001         estimate D2E/DX2                !
 ! R49   R(20,42)                1.0998         estimate D2E/DX2                !
 ! R50   R(21,26)                1.4574         estimate D2E/DX2                !
 ! R51   R(21,39)                1.1            estimate D2E/DX2                !
 ! R52   R(21,40)                1.1            estimate D2E/DX2                !
 ! R53   R(22,27)                1.4566         estimate D2E/DX2                !
 ! R54   R(22,37)                1.1007         estimate D2E/DX2                !
 ! R55   R(22,38)                1.1            estimate D2E/DX2                !
 ! R56   R(23,57)                1.0997         estimate D2E/DX2                !
 ! R57   R(23,58)                1.0999         estimate D2E/DX2                !
 ! R58   R(25,36)                0.9999         estimate D2E/DX2                !
 ! R59   R(26,35)                1.0            estimate D2E/DX2                !
 ! R60   R(27,34)                1.0            estimate D2E/DX2                !
 ! A1    A(3,1,10)             119.6101         estimate D2E/DX2                !
 ! A2    A(3,1,56)             120.1577         estimate D2E/DX2                !
 ! A3    A(10,1,56)            120.2322         estimate D2E/DX2                !
 ! A4    A(4,2,10)             119.4466         estimate D2E/DX2                !
 ! A5    A(4,2,55)             120.2418         estimate D2E/DX2                !
 ! A6    A(10,2,55)            120.3116         estimate D2E/DX2                !
 ! A7    A(1,3,8)              120.9081         estimate D2E/DX2                !
 ! A8    A(1,3,54)             119.5423         estimate D2E/DX2                !
 ! A9    A(8,3,54)             119.5495         estimate D2E/DX2                !
 ! A10   A(2,4,8)              121.1996         estimate D2E/DX2                !
 ! A11   A(2,4,53)             119.3857         estimate D2E/DX2                !
 ! A12   A(8,4,53)             119.4146         estimate D2E/DX2                !
 ! A13   A(6,5,9)              120.0839         estimate D2E/DX2                !
 ! A14   A(6,5,52)             119.977          estimate D2E/DX2                !
 ! A15   A(9,5,52)             119.9391         estimate D2E/DX2                !
 ! A16   A(5,6,11)             120.7156         estimate D2E/DX2                !
 ! A17   A(5,6,51)             119.632          estimate D2E/DX2                !
 ! A18   A(11,6,51)            119.6524         estimate D2E/DX2                !
 ! A19   A(11,7,12)            118.8914         estimate D2E/DX2                !
 ! A20   A(11,7,50)            120.5894         estimate D2E/DX2                !
 ! A21   A(12,7,50)            120.5192         estimate D2E/DX2                !
 ! A22   A(3,8,4)              118.5106         estimate D2E/DX2                !
 ! A23   A(3,8,19)             121.0109         estimate D2E/DX2                !
 ! A24   A(4,8,19)             120.3152         estimate D2E/DX2                !
 ! A25   A(5,9,12)             118.4452         estimate D2E/DX2                !
 ! A26   A(5,9,24)             126.8946         estimate D2E/DX2                !
 ! A27   A(12,9,24)            114.6594         estimate D2E/DX2                !
 ! A28   A(1,10,2)             120.2359         estimate D2E/DX2                !
 ! A29   A(1,10,32)            120.68           estimate D2E/DX2                !
 ! A30   A(2,10,32)            119.0377         estimate D2E/DX2                !
 ! A31   A(6,11,7)             119.9973         estimate D2E/DX2                !
 ! A32   A(6,11,25)            120.5208         estimate D2E/DX2                !
 ! A33   A(7,11,25)            119.4711         estimate D2E/DX2                !
 ! A34   A(7,12,9)             121.8513         estimate D2E/DX2                !
 ! A35   A(7,12,33)            128.5309         estimate D2E/DX2                !
 ! A36   A(9,12,33)            109.6129         estimate D2E/DX2                !
 ! A37   A(17,13,24)           123.1923         estimate D2E/DX2                !
 ! A38   A(17,13,33)           121.1541         estimate D2E/DX2                !
 ! A39   A(24,13,33)           115.6473         estimate D2E/DX2                !
 ! A40   A(20,14,25)           114.4            estimate D2E/DX2                !
 ! A41   A(20,14,28)           121.7943         estimate D2E/DX2                !
 ! A42   A(25,14,28)           123.8037         estimate D2E/DX2                !
 ! A43   A(23,15,29)           122.9629         estimate D2E/DX2                !
 ! A44   A(23,15,31)           112.5597         estimate D2E/DX2                !
 ! A45   A(29,15,31)           124.453          estimate D2E/DX2                !
 ! A46   A(26,16,27)           115.2731         estimate D2E/DX2                !
 ! A47   A(26,16,30)           122.3095         estimate D2E/DX2                !
 ! A48   A(27,16,30)           122.3631         estimate D2E/DX2                !
 ! A49   A(13,17,47)           109.4332         estimate D2E/DX2                !
 ! A50   A(13,17,48)           109.4853         estimate D2E/DX2                !
 ! A51   A(13,17,49)           109.5236         estimate D2E/DX2                !
 ! A52   A(47,17,48)           109.4518         estimate D2E/DX2                !
 ! A53   A(47,17,49)           109.461          estimate D2E/DX2                !
 ! A54   A(48,17,49)           109.4723         estimate D2E/DX2                !
 ! A55   A(21,18,32)           107.2575         estimate D2E/DX2                !
 ! A56   A(21,18,45)           110.0347         estimate D2E/DX2                !
 ! A57   A(21,18,46)           110.0089         estimate D2E/DX2                !
 ! A58   A(32,18,45)           110.0656         estimate D2E/DX2                !
 ! A59   A(32,18,46)           110.0201         estimate D2E/DX2                !
 ! A60   A(45,18,46)           109.4303         estimate D2E/DX2                !
 ! A61   A(8,19,23)            113.2822         estimate D2E/DX2                !
 ! A62   A(8,19,43)            108.5484         estimate D2E/DX2                !
 ! A63   A(8,19,44)            108.5365         estimate D2E/DX2                !
 ! A64   A(23,19,43)           108.5082         estimate D2E/DX2                !
 ! A65   A(23,19,44)           108.4728         estimate D2E/DX2                !
 ! A66   A(43,19,44)           109.4449         estimate D2E/DX2                !
 ! A67   A(14,20,22)           112.3349         estimate D2E/DX2                !
 ! A68   A(14,20,41)           108.7506         estimate D2E/DX2                !
 ! A69   A(14,20,42)           108.7438         estimate D2E/DX2                !
 ! A70   A(22,20,41)           108.7616         estimate D2E/DX2                !
 ! A71   A(22,20,42)           108.7786         estimate D2E/DX2                !
 ! A72   A(41,20,42)           109.4379         estimate D2E/DX2                !
 ! A73   A(18,21,26)           112.265          estimate D2E/DX2                !
 ! A74   A(18,21,39)           108.7704         estimate D2E/DX2                !
 ! A75   A(18,21,40)           108.7031         estimate D2E/DX2                !
 ! A76   A(26,21,39)           108.821          estimate D2E/DX2                !
 ! A77   A(26,21,40)           108.8058         estimate D2E/DX2                !
 ! A78   A(39,21,40)           109.4431         estimate D2E/DX2                !
 ! A79   A(20,22,27)           111.8956         estimate D2E/DX2                !
 ! A80   A(20,22,37)           108.8746         estimate D2E/DX2                !
 ! A81   A(20,22,38)           108.8684         estimate D2E/DX2                !
 ! A82   A(27,22,37)           108.8873         estimate D2E/DX2                !
 ! A83   A(27,22,38)           108.861          estimate D2E/DX2                !
 ! A84   A(37,22,38)           109.4254         estimate D2E/DX2                !
 ! A85   A(15,23,19)           111.4194         estimate D2E/DX2                !
 ! A86   A(15,23,57)           108.9587         estimate D2E/DX2                !
 ! A87   A(15,23,58)           108.9937         estimate D2E/DX2                !
 ! A88   A(19,23,57)           109.0146         estimate D2E/DX2                !
 ! A89   A(19,23,58)           108.9799         estimate D2E/DX2                !
 ! A90   A(57,23,58)           109.4518         estimate D2E/DX2                !
 ! A91   A(9,24,13)            110.695          estimate D2E/DX2                !
 ! A92   A(11,25,14)           127.8808         estimate D2E/DX2                !
 ! A93   A(11,25,36)           116.0149         estimate D2E/DX2                !
 ! A94   A(14,25,36)           116.1043         estimate D2E/DX2                !
 ! A95   A(16,26,21)           122.2198         estimate D2E/DX2                !
 ! A96   A(16,26,35)           118.9256         estimate D2E/DX2                !
 ! A97   A(21,26,35)           118.8546         estimate D2E/DX2                !
 ! A98   A(16,27,22)           122.3168         estimate D2E/DX2                !
 ! A99   A(16,27,34)           118.8165         estimate D2E/DX2                !
 ! A100  A(22,27,34)           118.8666         estimate D2E/DX2                !
 ! A101  A(10,32,18)           118.4702         estimate D2E/DX2                !
 ! A102  A(12,33,13)            89.339          estimate D2E/DX2                !
 ! D1    D(10,1,3,8)            -1.8314         estimate D2E/DX2                !
 ! D2    D(10,1,3,54)          178.0809         estimate D2E/DX2                !
 ! D3    D(56,1,3,8)           178.0867         estimate D2E/DX2                !
 ! D4    D(56,1,3,54)           -2.001          estimate D2E/DX2                !
 ! D5    D(3,1,10,2)             2.8171         estimate D2E/DX2                !
 ! D6    D(3,1,10,32)         -179.6838         estimate D2E/DX2                !
 ! D7    D(56,1,10,2)         -177.101          estimate D2E/DX2                !
 ! D8    D(56,1,10,32)           0.3981         estimate D2E/DX2                !
 ! D9    D(10,2,4,8)            -1.7456         estimate D2E/DX2                !
 ! D10   D(10,2,4,53)          178.2582         estimate D2E/DX2                !
 ! D11   D(55,2,4,8)           178.2031         estimate D2E/DX2                !
 ! D12   D(55,2,4,53)           -1.7931         estimate D2E/DX2                !
 ! D13   D(4,2,10,1)            -1.0561         estimate D2E/DX2                !
 ! D14   D(4,2,10,32)         -178.596          estimate D2E/DX2                !
 ! D15   D(55,2,10,1)          178.9953         estimate D2E/DX2                !
 ! D16   D(55,2,10,32)           1.4553         estimate D2E/DX2                !
 ! D17   D(1,3,8,4)             -0.9002         estimate D2E/DX2                !
 ! D18   D(1,3,8,19)          -176.2708         estimate D2E/DX2                !
 ! D19   D(54,3,8,4)           179.1875         estimate D2E/DX2                !
 ! D20   D(54,3,8,19)            3.8169         estimate D2E/DX2                !
 ! D21   D(2,4,8,3)              2.7031         estimate D2E/DX2                !
 ! D22   D(2,4,8,19)           178.107          estimate D2E/DX2                !
 ! D23   D(53,4,8,3)          -177.3007         estimate D2E/DX2                !
 ! D24   D(53,4,8,19)           -1.8968         estimate D2E/DX2                !
 ! D25   D(9,5,6,11)             0.6191         estimate D2E/DX2                !
 ! D26   D(9,5,6,51)          -179.4002         estimate D2E/DX2                !
 ! D27   D(52,5,6,11)         -179.3706         estimate D2E/DX2                !
 ! D28   D(52,5,6,51)            0.6101         estimate D2E/DX2                !
 ! D29   D(6,5,9,12)             0.1943         estimate D2E/DX2                !
 ! D30   D(6,5,9,24)           179.8512         estimate D2E/DX2                !
 ! D31   D(52,5,9,12)         -179.816          estimate D2E/DX2                !
 ! D32   D(52,5,9,24)           -0.159          estimate D2E/DX2                !
 ! D33   D(5,6,11,7)            -1.4253         estimate D2E/DX2                !
 ! D34   D(5,6,11,25)          179.7827         estimate D2E/DX2                !
 ! D35   D(51,6,11,7)          178.5939         estimate D2E/DX2                !
 ! D36   D(51,6,11,25)          -0.198          estimate D2E/DX2                !
 ! D37   D(12,7,11,6)            1.3878         estimate D2E/DX2                !
 ! D38   D(12,7,11,25)        -179.8075         estimate D2E/DX2                !
 ! D39   D(50,7,11,6)         -178.6295         estimate D2E/DX2                !
 ! D40   D(50,7,11,25)           0.1751         estimate D2E/DX2                !
 ! D41   D(11,7,12,9)           -0.5808         estimate D2E/DX2                !
 ! D42   D(11,7,12,33)        -179.6828         estimate D2E/DX2                !
 ! D43   D(50,7,12,9)          179.4366         estimate D2E/DX2                !
 ! D44   D(50,7,12,33)           0.3345         estimate D2E/DX2                !
 ! D45   D(3,8,19,23)           52.7769         estimate D2E/DX2                !
 ! D46   D(3,8,19,43)          173.3673         estimate D2E/DX2                !
 ! D47   D(3,8,19,44)          -67.7603         estimate D2E/DX2                !
 ! D48   D(4,8,19,23)         -122.5105         estimate D2E/DX2                !
 ! D49   D(4,8,19,43)           -1.9202         estimate D2E/DX2                !
 ! D50   D(4,8,19,44)          116.9522         estimate D2E/DX2                !
 ! D51   D(5,9,12,7)            -0.2099         estimate D2E/DX2                !
 ! D52   D(5,9,12,33)          179.0444         estimate D2E/DX2                !
 ! D53   D(24,9,12,7)         -179.908          estimate D2E/DX2                !
 ! D54   D(24,9,12,33)          -0.6537         estimate D2E/DX2                !
 ! D55   D(5,9,24,13)          179.4395         estimate D2E/DX2                !
 ! D56   D(12,9,24,13)          -0.8924         estimate D2E/DX2                !
 ! D57   D(1,10,32,18)           2.0269         estimate D2E/DX2                !
 ! D58   D(2,10,32,18)         179.5557         estimate D2E/DX2                !
 ! D59   D(6,11,25,14)        -135.768          estimate D2E/DX2                !
 ! D60   D(6,11,25,36)          44.2883         estimate D2E/DX2                !
 ! D61   D(7,11,25,14)          45.4337         estimate D2E/DX2                !
 ! D62   D(7,11,25,36)        -134.51           estimate D2E/DX2                !
 ! D63   D(7,12,33,13)        -179.3469         estimate D2E/DX2                !
 ! D64   D(9,12,33,13)           1.4627         estimate D2E/DX2                !
 ! D65   D(24,13,17,47)        120.9134         estimate D2E/DX2                !
 ! D66   D(24,13,17,48)       -119.125          estimate D2E/DX2                !
 ! D67   D(24,13,17,49)          0.9171         estimate D2E/DX2                !
 ! D68   D(33,13,17,47)        -60.0357         estimate D2E/DX2                !
 ! D69   D(33,13,17,48)         59.9259         estimate D2E/DX2                !
 ! D70   D(33,13,17,49)        179.968          estimate D2E/DX2                !
 ! D71   D(17,13,24,9)        -178.7975         estimate D2E/DX2                !
 ! D72   D(33,13,24,9)           2.1035         estimate D2E/DX2                !
 ! D73   D(17,13,33,12)        178.7527         estimate D2E/DX2                !
 ! D74   D(24,13,33,12)         -2.1283         estimate D2E/DX2                !
 ! D75   D(25,14,20,22)        154.6999         estimate D2E/DX2                !
 ! D76   D(25,14,20,41)        -84.8577         estimate D2E/DX2                !
 ! D77   D(25,14,20,42)         34.2407         estimate D2E/DX2                !
 ! D78   D(28,14,20,22)        -24.8055         estimate D2E/DX2                !
 ! D79   D(28,14,20,41)         95.6369         estimate D2E/DX2                !
 ! D80   D(28,14,20,42)       -145.2647         estimate D2E/DX2                !
 ! D81   D(20,14,25,11)        168.8419         estimate D2E/DX2                !
 ! D82   D(20,14,25,36)        -11.2145         estimate D2E/DX2                !
 ! D83   D(28,14,25,11)        -11.6639         estimate D2E/DX2                !
 ! D84   D(28,14,25,36)        168.2797         estimate D2E/DX2                !
 ! D85   D(29,15,23,19)        -93.0574         estimate D2E/DX2                !
 ! D86   D(29,15,23,57)        146.6236         estimate D2E/DX2                !
 ! D87   D(29,15,23,58)         27.2415         estimate D2E/DX2                !
 ! D88   D(31,15,23,19)         85.2176         estimate D2E/DX2                !
 ! D89   D(31,15,23,57)        -35.1015         estimate D2E/DX2                !
 ! D90   D(31,15,23,58)       -154.4836         estimate D2E/DX2                !
 ! D91   D(27,16,26,21)        150.7356         estimate D2E/DX2                !
 ! D92   D(27,16,26,35)        -29.3143         estimate D2E/DX2                !
 ! D93   D(30,16,26,21)        -31.8864         estimate D2E/DX2                !
 ! D94   D(30,16,26,35)        148.0637         estimate D2E/DX2                !
 ! D95   D(26,16,27,22)       -179.0317         estimate D2E/DX2                !
 ! D96   D(26,16,27,34)          1.0037         estimate D2E/DX2                !
 ! D97   D(30,16,27,22)          3.5919         estimate D2E/DX2                !
 ! D98   D(30,16,27,34)       -176.3727         estimate D2E/DX2                !
 ! D99   D(32,18,21,26)        171.0461         estimate D2E/DX2                !
 ! D100  D(32,18,21,39)         50.5602         estimate D2E/DX2                !
 ! D101  D(32,18,21,40)        -68.5324         estimate D2E/DX2                !
 ! D102  D(45,18,21,26)        -69.2385         estimate D2E/DX2                !
 ! D103  D(45,18,21,39)        170.2757         estimate D2E/DX2                !
 ! D104  D(45,18,21,40)         51.183          estimate D2E/DX2                !
 ! D105  D(46,18,21,26)         51.4001         estimate D2E/DX2                !
 ! D106  D(46,18,21,39)        -69.0857         estimate D2E/DX2                !
 ! D107  D(46,18,21,40)        171.8216         estimate D2E/DX2                !
 ! D108  D(21,18,32,10)        153.7392         estimate D2E/DX2                !
 ! D109  D(45,18,32,10)         34.0436         estimate D2E/DX2                !
 ! D110  D(46,18,32,10)        -86.622          estimate D2E/DX2                !
 ! D111  D(8,19,23,15)         173.6371         estimate D2E/DX2                !
 ! D112  D(8,19,23,57)         -66.0768         estimate D2E/DX2                !
 ! D113  D(8,19,23,58)          53.3301         estimate D2E/DX2                !
 ! D114  D(43,19,23,15)         53.0239         estimate D2E/DX2                !
 ! D115  D(43,19,23,57)        173.31           estimate D2E/DX2                !
 ! D116  D(43,19,23,58)        -67.283          estimate D2E/DX2                !
 ! D117  D(44,19,23,15)        -65.7896         estimate D2E/DX2                !
 ! D118  D(44,19,23,57)         54.4966         estimate D2E/DX2                !
 ! D119  D(44,19,23,58)        173.9035         estimate D2E/DX2                !
 ! D120  D(14,20,22,27)         64.1584         estimate D2E/DX2                !
 ! D121  D(14,20,22,37)       -175.4369         estimate D2E/DX2                !
 ! D122  D(14,20,22,38)        -56.2094         estimate D2E/DX2                !
 ! D123  D(41,20,22,27)        -56.2777         estimate D2E/DX2                !
 ! D124  D(41,20,22,37)         64.127          estimate D2E/DX2                !
 ! D125  D(41,20,22,38)       -176.6455         estimate D2E/DX2                !
 ! D126  D(42,20,22,27)       -175.4025         estimate D2E/DX2                !
 ! D127  D(42,20,22,37)        -54.9978         estimate D2E/DX2                !
 ! D128  D(42,20,22,38)         64.2297         estimate D2E/DX2                !
 ! D129  D(18,21,26,16)        116.3559         estimate D2E/DX2                !
 ! D130  D(18,21,26,35)        -63.5942         estimate D2E/DX2                !
 ! D131  D(39,21,26,16)       -123.1875         estimate D2E/DX2                !
 ! D132  D(39,21,26,35)         56.8624         estimate D2E/DX2                !
 ! D133  D(40,21,26,16)         -4.0061         estimate D2E/DX2                !
 ! D134  D(40,21,26,35)        176.0438         estimate D2E/DX2                !
 ! D135  D(20,22,27,16)         85.4255         estimate D2E/DX2                !
 ! D136  D(20,22,27,34)        -94.6099         estimate D2E/DX2                !
 ! D137  D(37,22,27,16)        -34.9718         estimate D2E/DX2                !
 ! D138  D(37,22,27,34)        144.9929         estimate D2E/DX2                !
 ! D139  D(38,22,27,16)       -154.2025         estimate D2E/DX2                !
 ! D140  D(38,22,27,34)         25.7622         estimate D2E/DX2                !
 --------------------------------------------------------------------------------
 Trust Radius=3.00D-01 FncErr=1.00D-07 GrdErr=1.00D-07
 Number of steps in this run=    312 maximum allowed number of steps=    348.
 GradGradGradGradGradGradGradGradGradGradGradGradGradGradGradGradGradGrad

 Stoichiometry    C23H25N4O5S(1-)
 Framework group  C1[X(C23H25N4O5S)]
 Deg. of freedom   168
 Full point group                 C1      NOp   1
 Largest Abelian subgroup         C1      NOp   1
 Largest concise Abelian subgroup C1      NOp   1
                         Standard orientation:                         
 ---------------------------------------------------------------------
 Center     Atomic      Atomic             Coordinates (Angstroms)
 Number     Number       Type             X           Y           Z
 ---------------------------------------------------------------------
      1          6           0       -5.746133    0.109468   -0.282499
      2          6           0       -5.763877   -1.910383    1.003665
      3          6           0       -7.109036    0.238125   -0.089559
      4          6           0       -7.132680   -1.787542    1.157142
      5          6           0        7.519809   -0.385439    2.168204
      6          6           0        6.507169    0.555760    2.113156
      7          6           0        6.467173    0.417002   -0.290665
      8          6           0       -7.816606   -0.703555    0.640275
      9          6           0        8.021984   -0.943168    0.990377
     10          6           0       -5.072474   -0.952143    0.291191
     11          6           0        5.968438    0.948877    0.892967
     12          6           0        7.481537   -0.524790   -0.226361
     13          6           0        9.247104   -2.203981   -0.377912
     14          6           0        3.802039    1.872087    0.096853
     15          6           0      -11.536493   -0.553142   -0.389689
     16          6           0       -0.110003    1.816116   -0.504356
     17          6           0       10.261219   -3.220707   -0.815002
     18          6           0       -3.013494   -0.101312   -0.630369
     19          6           0       -9.314329   -0.610857    0.782221
     20          6           0        2.778077    2.914497    0.466227
     21          6           0       -1.595211   -0.103330   -0.149958
     22          6           0        1.866716    3.257152   -0.686962
     23          6           0      -10.047290   -0.487886   -0.566918
     24          7           0        9.036104   -1.894247    0.880303
     25          7           0        4.929806    1.908368    0.841770
     26          7           0       -0.729532    0.723769   -0.980961
     27          7           0        1.057159    2.117692   -1.096638
     28          8           0        3.611036    1.072149   -0.815017
     29          8           0      -12.170633   -1.592830   -0.474945
     30          8           0       -0.601739    2.518709    0.377776
     31          8           0      -12.054733    0.601203   -0.104263
     32          8           0       -3.717227   -1.097709    0.119119
     33         16           0        8.287677   -1.339916   -1.534319
     34          1           0        1.381170    1.539615   -1.845573
     35          1           0       -0.593126    0.469407   -1.938364
     36          1           0        5.044774    2.710805    1.427213
     37          1           0        1.199049    4.077190   -0.381643
     38          1           0        2.479771    3.582946   -1.540233
     39          1           0       -1.218371   -1.136700   -0.163520
     40          1           0       -1.571182    0.281681    0.880159
     41          1           0        2.167909    2.531770    1.297809
     42          1           0        3.302167    3.826803    0.786465
     43          1           0       -9.673966   -1.515699    1.293748
     44          1           0       -9.553818    0.273473    1.390826
     45          1           0       -3.466800    0.887237   -0.462947
     46          1           0       -3.047911   -0.342816   -1.703371
     47          1           0        9.757595   -4.022142   -1.377074
     48          1           0       11.011491   -2.737527   -1.458585
     49          1           0       10.756966   -3.648555    0.068384
     50          1           0        6.069378    0.733149   -1.248279
     51          1           0        6.129808    0.990828    3.030742
     52          1           0        7.923881   -0.690566    3.126220
     53          1           0       -7.678834   -2.555447    1.692616
     54          1           0       -7.631460    1.088833   -0.514242
     55          1           0       -5.238961   -2.752149    1.440341
     56          1           0       -5.209496    0.837122   -0.881874
     57          1           0       -9.784542    0.473768   -1.031054
     58          1           0       -9.728533   -1.310714   -1.223502
 ---------------------------------------------------------------------
 Rotational constants (GHZ):      0.3198868      0.0214700      0.0207911
 Standard basis: 6-31G(d) (6D, 7F)
 There are   549 symmetry adapted basis functions of A   symmetry.
 Integral buffers will be    131072 words long.
 Raffenetti 1 integral format.
 Two-electron integral symmetry is turned on.
   549 basis functions,  1048 primitive gaussians,   549 cartesian basis functions
   124 alpha electrons      124 beta electrons
       nuclear repulsion energy      2999.1366364518 Hartrees.
 NAtoms=   58 NActive=   58 NUniq=   58 SFac= 1.00D+00 NAtFMM=   60 NAOKFM=F Big=F
 One-electron integrals computed using PRISM.
 NBasis=   549 RedAO= T  NBF=   549
 NBsUse=   549 1.00D-06 NBFU=   549
 Harris functional with IExCor=  205 diagonalized for initial guess.
 ExpMin= 1.17D-01 ExpMax= 2.19D+04 ExpMxC= 3.30D+03 IAcc=1 IRadAn=         1 AccDes= 0.00D+00
 HarFok:  IExCor=  205 AccDes= 0.00D+00 IRadAn=         1 IDoV= 1
 ScaDFX=  1.000000  1.000000  1.000000  1.000000
 FoFCou: FMM=F IPFlag=           0 FMFlag=      100000 FMFlg1=           0
         NFxFlg=           0 DoJE=T BraDBF=F KetDBF=T FulRan=T
         Omega=  0.000000  0.000000  1.000000  0.000000  0.000000 ICntrl=     500 IOpCl=  0
         NMat0=    1 NMatS0=    1 NMatT0=    0 NMatD0=    1 NMtDS0=    0 NMtDT0=    0
         I1Cent=           4 NGrid=           0.
 Petite list used in FoFCou.
 Initial guess orbital symmetries:
       Occupied  (A) (A) (A) (A) (A) (A) (A) (A) (A) (A) (A) (A)
                 (A) (A) (A) (A) (A) (A) (A) (A) (A) (A) (A) (A)
                 (A) (A) (A) (A) (A) (A) (A) (A) (A) (A) (A) (A)
                 (A) (A) (A) (A) (A) (A) (A) (A) (A) (A) (A) (A)
                 (A) (A) (A) (A) (A) (A) (A) (A) (A) (A) (A) (A)
                 (A) (A) (A) (A) (A) (A) (A) (A) (A) (A) (A) (A)
                 (A) (A) (A) (A) (A) (A) (A) (A) (A) (A) (A) (A)
                 (A) (A) (A) (A) (A) (A) (A) (A) (A) (A) (A) (A)
                 (A) (A) (A) (A) (A) (A) (A) (A) (A) (A) (A) (A)
                 (A) (A) (A) (A) (A) (A) (A) (A) (A) (A) (A) (A)
                 (A) (A) (A) (A)
       Virtual   (A) (A) (A) (A) (A) (A) (A) (A) (A) (A) (A) (A)
                 (A) (A) (A) (A) (A) (A) (A) (A) (A) (A) (A) (A)
                 (A) (A) (A) (A) (A) (A) (A) (A) (A) (A) (A) (A)
                 (A) (A) (A) (A) (A) (A) (A) (A) (A) (A) (A) (A)
                 (A) (A) (A) (A) (A) (A) (A) (A) (A) (A) (A) (A)
                 (A) (A) (A) (A) (A) (A) (A) (A) (A) (A) (A) (A)
                 (A) (A) (A) (A) (A) (A) (A) (A) (A) (A) (A) (A)
                 (A) (A) (A) (A) (A) (A) (A) (A) (A) (A) (A) (A)
                 (A) (A) (A) (A) (A) (A) (A) (A) (A) (A) (A) (A)
                 (A) (A) (A) (A) (A) (A) (A) (A) (A) (A) (A) (A)
                 (A) (A) (A) (A) (A) (A) (A) (A) (A) (A) (A) (A)
                 (A) (A) (A) (A) (A) (A) (A) (A) (A) (A) (A) (A)
                 (A) (A) (A) (A) (A) (A) (A) (A) (A) (A) (A) (A)
                 (A) (A) (A) (A) (A) (A) (A) (A) (A) (A) (A) (A)
                 (A) (A) (A) (A) (A) (A) (A) (A) (A) (A) (A) (A)
                 (A) (A) (A) (A) (A) (A) (A) (A) (A) (A) (A) (A)
                 (A) (A) (A) (A) (A) (A) (A) (A) (A) (A) (A) (A)
                 (A) (A) (A) (A) (A) (A) (A) (A) (A) (A) (A) (A)
                 (A) (A) (A) (A) (A) (A) (A) (A) (A) (A) (A) (A)
                 (A) (A) (A) (A) (A) (A) (A) (A) (A) (A) (A) (A)
                 (A) (A) (A) (A) (A) (A) (A) (A) (A) (A) (A) (A)
                 (A) (A) (A) (A) (A) (A) (A) (A) (A) (A) (A) (A)
                 (A) (A) (A) (A) (A) (A) (A) (A) (A) (A) (A) (A)
                 (A) (A) (A) (A) (A) (A) (A) (A) (A) (A) (A) (A)
                 (A) (A) (A) (A) (A) (A) (A) (A) (A) (A) (A) (A)
                 (A) (A) (A) (A) (A) (A) (A) (A) (A) (A) (A) (A)
                 (A) (A) (A) (A) (A) (A) (A) (A) (A) (A) (A) (A)
                 (A) (A) (A) (A) (A) (A) (A) (A) (A) (A) (A) (A)
                 (A) (A) (A) (A) (A) (A) (A) (A) (A) (A) (A) (A)
                 (A) (A) (A) (A) (A) (A) (A) (A) (A) (A) (A) (A)
                 (A) (A) (A) (A) (A) (A) (A) (A) (A) (A) (A) (A)
                 (A) (A) (A) (A) (A) (A) (A) (A) (A) (A) (A) (A)
                 (A) (A) (A) (A) (A) (A) (A) (A) (A) (A) (A) (A)
                 (A) (A) (A) (A) (A) (A) (A) (A) (A) (A) (A) (A)
                 (A) (A) (A) (A) (A) (A) (A) (A) (A) (A) (A) (A)
                 (A) (A) (A) (A) (A)
 The electronic state of the initial guess is 1-A.
 Requested convergence on RMS density matrix=1.00D-08 within 128 cycles.
 Requested convergence on MAX density matrix=1.00D-06.
 Requested convergence on             energy=1.00D-06.
 No special actions if energy rises.
 Integral accuracy reduced to 1.0D-05 until final iterations.
 Initial convergence to 1.0D-05 achieved.  Increase integral accuracy.
 SCF Done:  E(RHF) =  -1875.19688705     A.U. after   16 cycles
             Convg  =    0.7302D-08             -V/T =  2.0014

 **********************************************************************

            Population analysis using the SCF density.

 **********************************************************************

 Orbital symmetries:
 BldTbl:  Degeneracy threshold= 1.00D-02
       Occupied  (A) (A) (A) (A) (A) (A) (A) (A) (A) (A) (A) (A)
                 (A) (A) (A) (A) (A) (A) (A) (A) (A) (A) (A) (A)
                 (A) (A) (A) (A) (A) (A) (A) (A) (A) (A) (A) (A)
                 (A) (A) (A) (A) (A) (A) (A) (A) (A) (A) (A) (A)
                 (A) (A) (A) (A) (A) (A) (A) (A) (A) (A) (A) (A)
                 (A) (A) (A) (A) (A) (A) (A) (A) (A) (A) (A) (A)
                 (A) (A) (A) (A) (A) (A) (A) (A) (A) (A) (A) (A)
                 (A) (A) (A) (A) (A) (A) (A) (A) (A) (A) (A) (A)
                 (A) (A) (A) (A) (A) (A) (A) (A) (A) (A) (A) (A)
                 (A) (A) (A) (A) (A) (A) (A) (A) (A) (A) (A) (A)
                 (A) (A) (A) (A)
       Virtual   (A) (A) (A) (A) (A) (A) (A) (A) (A) (A) (A) (A)
                 (A) (A) (A) (A) (A) (A) (A) (A) (A) (A) (A) (A)
                 (A) (A) (A) (A) (A) (A) (A) (A) (A) (A) (A) (A)
                 (A) (A) (A) (A) (A) (A) (A) (A) (A) (A) (A) (A)
                 (A) (A) (A) (A) (A) (A) (A) (A) (A) (A) (A) (A)
                 (A) (A) (A) (A) (A) (A) (A) (A) (A) (A) (A) (A)
                 (A) (A) (A) (A) (A) (A) (A) (A) (A) (A) (A) (A)
                 (A) (A) (A) (A) (A) (A) (A) (A) (A) (A) (A) (A)
                 (A) (A) (A) (A) (A) (A) (A) (A) (A) (A) (A) (A)
                 (A) (A) (A) (A) (A) (A) (A) (A) (A) (A) (A) (A)
                 (A) (A) (A) (A) (A) (A) (A) (A) (A) (A) (A) (A)
                 (A) (A) (A) (A) (A) (A) (A) (A) (A) (A) (A) (A)
                 (A) (A) (A) (A) (A) (A) (A) (A) (A) (A) (A) (A)
                 (A) (A) (A) (A) (A) (A) (A) (A) (A) (A) (A) (A)
                 (A) (A) (A) (A) (A) (A) (A) (A) (A) (A) (A) (A)
                 (A) (A) (A) (A) (A) (A) (A) (A) (A) (A) (A) (A)
                 (A) (A) (A) (A) (A) (A) (A) (A) (A) (A) (A) (A)
                 (A) (A) (A) (A) (A) (A) (A) (A) (A) (A) (A) (A)
                 (A) (A) (A) (A) (A) (A) (A) (A) (A) (A) (A) (A)
                 (A) (A) (A) (A) (A) (A) (A) (A) (A) (A) (A) (A)
                 (A) (A) (A) (A) (A) (A) (A) (A) (A) (A) (A) (A)
                 (A) (A) (A) (A) (A) (A) (A) (A) (A) (A) (A) (A)
                 (A) (A) (A) (A) (A) (A) (A) (A) (A) (A) (A) (A)
                 (A) (A) (A) (A) (A) (A) (A) (A) (A) (A) (A) (A)
                 (A) (A) (A) (A) (A) (A) (A) (A) (A) (A) (A) (A)
                 (A) (A) (A) (A) (A) (A) (A) (A) (A) (A) (A) (A)
                 (A) (A) (A) (A) (A) (A) (A) (A) (A) (A) (A) (A)
                 (A) (A) (A) (A) (A) (A) (A) (A) (A) (A) (A) (A)
                 (A) (A) (A) (A) (A) (A) (A) (A) (A) (A) (A) (A)
                 (A) (A) (A) (A) (A) (A) (A) (A) (A) (A) (A) (A)
                 (A) (A) (A) (A) (A) (A) (A) (A) (A) (A) (A) (A)
                 (A) (A) (A) (A) (A) (A) (A) (A) (A) (A) (A) (A)
                 (A) (A) (A) (A) (A) (A) (A) (A) (A) (A) (A) (A)
                 (A) (A) (A) (A) (A) (A) (A) (A) (A) (A) (A) (A)
                 (A) (A) (A) (A) (A) (A) (A) (A) (A) (A) (A) (A)
                 (A) (A) (A) (A) (A)
 The electronic state is 1-A.
 Alpha  occ. eigenvalues --  -91.95118 -20.50489 -20.49875 -20.44977 -20.27948
 Alpha  occ. eigenvalues --  -20.25193 -15.57620 -15.54637 -15.52928 -15.52259
 Alpha  occ. eigenvalues --  -11.32813 -11.31413 -11.29773 -11.25969 -11.24493
 Alpha  occ. eigenvalues --  -11.24325 -11.23301 -11.22457 -11.21802 -11.21799
 Alpha  occ. eigenvalues --  -11.21671 -11.21611 -11.20855 -11.20484 -11.20053
 Alpha  occ. eigenvalues --  -11.13362 -11.13302 -11.13119 -11.13070 -11.12110
 Alpha  occ. eigenvalues --  -11.11304 -11.09318 -11.05541  -8.96265  -6.64518
 Alpha  occ. eigenvalues --   -6.64425  -6.64244  -1.35355  -1.33097  -1.31967
 Alpha  occ. eigenvalues --   -1.25418  -1.22939  -1.19123  -1.16107  -1.15130
 Alpha  occ. eigenvalues --   -1.11904  -1.05912  -1.04848  -1.02788  -1.02537
 Alpha  occ. eigenvalues --   -1.00724  -0.97628  -0.96625  -0.93590  -0.93020
 Alpha  occ. eigenvalues --   -0.92214  -0.86940  -0.85181  -0.81838  -0.80053
 Alpha  occ. eigenvalues --   -0.78882  -0.75985  -0.74945  -0.74423  -0.73481
 Alpha  occ. eigenvalues --   -0.72614  -0.71283  -0.68442  -0.67826  -0.65786
 Alpha  occ. eigenvalues --   -0.64562  -0.64178  -0.63321  -0.62227  -0.59896
 Alpha  occ. eigenvalues --   -0.58580  -0.58417  -0.58302  -0.57640  -0.56866
 Alpha  occ. eigenvalues --   -0.56398  -0.55580  -0.55029  -0.54011  -0.53542
 Alpha  occ. eigenvalues --   -0.53415  -0.52790  -0.52411  -0.51687  -0.51003
 Alpha  occ. eigenvalues --   -0.50718  -0.50069  -0.49594  -0.49265  -0.48749
 Alpha  occ. eigenvalues --   -0.48095  -0.47567  -0.45948  -0.45516  -0.44397
 Alpha  occ. eigenvalues --   -0.43698  -0.42794  -0.41519  -0.40028  -0.39711
 Alpha  occ. eigenvalues --   -0.39335  -0.38883  -0.38864  -0.38081  -0.37517
 Alpha  occ. eigenvalues --   -0.37470  -0.36541  -0.35794  -0.33680  -0.32797
 Alpha  occ. eigenvalues --   -0.32596  -0.30276  -0.29577  -0.27532  -0.24327
 Alpha  occ. eigenvalues --   -0.20738  -0.18087  -0.16692  -0.15785
 Alpha virt. eigenvalues --    0.13171   0.16027   0.18798   0.20926   0.22706
 Alpha virt. eigenvalues --    0.23490   0.25283   0.25965   0.26431   0.27664
 Alpha virt. eigenvalues --    0.27838   0.28627   0.29663   0.30243   0.31339
 Alpha virt. eigenvalues --    0.32951   0.33270   0.33633   0.33676   0.33980
 Alpha virt. eigenvalues --    0.34693   0.35146   0.35668   0.36093   0.37212
 Alpha virt. eigenvalues --    0.37720   0.37881   0.38724   0.38771   0.39839
 Alpha virt. eigenvalues --    0.40203   0.41090   0.42532   0.42561   0.43234
 Alpha virt. eigenvalues --    0.43573   0.44319   0.44682   0.45354   0.45450
 Alpha virt. eigenvalues --    0.46331   0.46762   0.46983   0.48877   0.49489
 Alpha virt. eigenvalues --    0.50276   0.50879   0.52060   0.52768   0.53059
 Alpha virt. eigenvalues --    0.54027   0.54636   0.55909   0.55963   0.57171
 Alpha virt. eigenvalues --    0.58363   0.58893   0.60387   0.60880   0.61809
 Alpha virt. eigenvalues --    0.62761   0.63136   0.64497   0.65349   0.66550
 Alpha virt. eigenvalues --    0.67548   0.68060   0.70538   0.71987   0.74036
 Alpha virt. eigenvalues --    0.74566   0.76107   0.76522   0.76669   0.77672
 Alpha virt. eigenvalues --    0.77991   0.78779   0.79017   0.79768   0.80446
 Alpha virt. eigenvalues --    0.80871   0.81887   0.82329   0.82888   0.83703
 Alpha virt. eigenvalues --    0.84418   0.84671   0.84878   0.85008   0.85415
 Alpha virt. eigenvalues --    0.85631   0.87460   0.88176   0.88474   0.89034
 Alpha virt. eigenvalues --    0.89428   0.90925   0.91054   0.91650   0.91924
 Alpha virt. eigenvalues --    0.92118   0.92396   0.93296   0.93560   0.93972
 Alpha virt. eigenvalues --    0.95034   0.95396   0.96631   0.96934   0.97475
 Alpha virt. eigenvalues --    0.98134   0.98820   0.99849   1.00882   1.01137
 Alpha virt. eigenvalues --    1.01659   1.01976   1.02325   1.03849   1.04506
 Alpha virt. eigenvalues --    1.05115   1.05842   1.06277   1.06616   1.07054
 Alpha virt. eigenvalues --    1.07832   1.08125   1.08382   1.09749   1.10337
 Alpha virt. eigenvalues --    1.10841   1.11375   1.12164   1.12704   1.12880
 Alpha virt. eigenvalues --    1.12981   1.13626   1.13814   1.14378   1.14733
 Alpha virt. eigenvalues --    1.15042   1.15610   1.16518   1.16953   1.17137
 Alpha virt. eigenvalues --    1.17465   1.18187   1.18725   1.19347   1.19927
 Alpha virt. eigenvalues --    1.20696   1.20818   1.21231   1.21544   1.22139
 Alpha virt. eigenvalues --    1.22493   1.22542   1.23332   1.23654   1.23987
 Alpha virt. eigenvalues --    1.24044   1.24984   1.25065   1.26179   1.26446
 Alpha virt. eigenvalues --    1.26853   1.27370   1.27908   1.28496   1.29207
 Alpha virt. eigenvalues --    1.30007   1.31091   1.31689   1.32800   1.33375
 Alpha virt. eigenvalues --    1.33951   1.34795   1.35696   1.36224   1.36487
 Alpha virt. eigenvalues --    1.37432   1.39060   1.39515   1.39872   1.40219
 Alpha virt. eigenvalues --    1.40945   1.41614   1.41982   1.44558   1.44783
 Alpha virt. eigenvalues --    1.46004   1.47251   1.47560   1.48567   1.49912
 Alpha virt. eigenvalues --    1.50875   1.51799   1.51967   1.53093   1.55332
 Alpha virt. eigenvalues --    1.55897   1.56674   1.57380   1.57855   1.58790
 Alpha virt. eigenvalues --    1.59637   1.61099   1.61251   1.61975   1.63020
 Alpha virt. eigenvalues --    1.63051   1.63577   1.64669   1.66531   1.67190
 Alpha virt. eigenvalues --    1.68077   1.69050   1.70859   1.71493   1.72489
 Alpha virt. eigenvalues --    1.73136   1.74111   1.76304   1.76619   1.77921
 Alpha virt. eigenvalues --    1.78218   1.79888   1.80609   1.81187   1.81871
 Alpha virt. eigenvalues --    1.83878   1.85293   1.86754   1.87311   1.87467
 Alpha virt. eigenvalues --    1.88972   1.89757   1.90213   1.91053   1.91525
 Alpha virt. eigenvalues --    1.92464   1.96116   1.96781   1.96955   1.97541
 Alpha virt. eigenvalues --    1.97815   1.99403   2.04511   2.05289   2.07224
 Alpha virt. eigenvalues --    2.08340   2.10892   2.11355   2.12051   2.14052
 Alpha virt. eigenvalues --    2.14734   2.15143   2.15995   2.16723   2.17115
 Alpha virt. eigenvalues --    2.18053   2.18836   2.19975   2.21077   2.21793
 Alpha virt. eigenvalues --    2.22487   2.22670   2.23889   2.24455   2.24988
 Alpha virt. eigenvalues --    2.25908   2.26088   2.26993   2.28428   2.28782
 Alpha virt. eigenvalues --    2.29154   2.29454   2.30651   2.31241   2.32305
 Alpha virt. eigenvalues --    2.33633   2.33982   2.34205   2.35804   2.36232
 Alpha virt. eigenvalues --    2.37270   2.37981   2.38635   2.39220   2.39292
 Alpha virt. eigenvalues --    2.40117   2.41248   2.42139   2.42625   2.43231
 Alpha virt. eigenvalues --    2.44080   2.44450   2.45710   2.46880   2.47988
 Alpha virt. eigenvalues --    2.48634   2.48900   2.49661   2.51140   2.52053
 Alpha virt. eigenvalues --    2.52721   2.53031   2.54163   2.54645   2.55781
 Alpha virt. eigenvalues --    2.56675   2.57154   2.58446   2.58894   2.59430
 Alpha virt. eigenvalues --    2.59858   2.61792   2.63651   2.64201   2.65415
 Alpha virt. eigenvalues --    2.65580   2.65962   2.66285   2.68361   2.70286
 Alpha virt. eigenvalues --    2.71274   2.72731   2.73899   2.74569   2.75167
 Alpha virt. eigenvalues --    2.76701   2.77214   2.77954   2.79704   2.80298
 Alpha virt. eigenvalues --    2.83088   2.83863   2.84984   2.85514   2.86387
 Alpha virt. eigenvalues --    2.86966   2.87971   2.88539   2.92493   2.94989
 Alpha virt. eigenvalues --    2.95812   2.96807   2.97443   2.98307   3.00050
 Alpha virt. eigenvalues --    3.01209   3.02880   3.03982   3.04534   3.06751
 Alpha virt. eigenvalues --    3.07599   3.08837   3.09388   3.10324   3.12251
 Alpha virt. eigenvalues --    3.13333   3.13688   3.14528   3.15644   3.17932
 Alpha virt. eigenvalues --    3.18509   3.20493   3.22095   3.22641   3.24069
 Alpha virt. eigenvalues --    3.26075   3.29213   3.30768   3.32903   3.37192
 Alpha virt. eigenvalues --    3.38573   3.39118   3.39668   3.40983   3.44531
 Alpha virt. eigenvalues --    3.45545   3.48896   3.51270   3.56058   3.58694
 Alpha virt. eigenvalues --    3.60681   3.63594   3.66179   3.68807   3.74609
 Alpha virt. eigenvalues --    3.84973   3.95478   4.39289   4.43651   4.47630
 Alpha virt. eigenvalues --    4.51025   4.55123   4.55245   4.55631   4.56507
 Alpha virt. eigenvalues --    4.58626   4.61377   4.61924   4.64476   4.66528
 Alpha virt. eigenvalues --    4.66672   4.67556   4.69860   4.73612   4.75472
 Alpha virt. eigenvalues --    4.76650   4.80090   4.83750   4.84816   4.86645
 Alpha virt. eigenvalues --    4.88506   4.94078   4.94712   4.97481   4.99243
 Alpha virt. eigenvalues --    5.02058   5.04062   5.19603   5.21616   5.31052
          Condensed to atoms (all electrons):
 Mulliken atomic charges:
              1
     1  C   -0.292624
     2  C   -0.254722
     3  C   -0.204448
     4  C   -0.221369
     5  C   -0.202536
     6  C   -0.232405
     7  C   -0.190171
     8  C    0.034870
     9  C    0.271052
    10  C    0.435364
    11  C    0.307854
    12  C   -0.239234
    13  C    0.099059
    14  C    0.790450
    15  C    0.725614
    16  C    1.014557
    17  C   -0.526901
    18  C    0.021907
    19  C   -0.349008
    20  C   -0.426890
    21  C   -0.118306
    22  C   -0.117544
    23  C   -0.361307
    24  N   -0.542989
    25  N   -0.891213
    26  N   -0.845228
    27  N   -0.801187
    28  O   -0.633065
    29  O   -0.726849
    30  O   -0.681125
    31  O   -0.821829
    32  O   -0.712349
    33  S    0.291608
    34  H    0.393764
    35  H    0.374184
    36  H    0.394406
    37  H    0.221956
    38  H    0.174345
    39  H    0.178800
    40  H    0.224120
    41  H    0.241634
    42  H    0.163638
    43  H    0.170322
    44  H    0.179722
    45  H    0.184708
    46  H    0.139549
    47  H    0.195117
    48  H    0.191269
    49  H    0.218080
    50  H    0.253473
    51  H    0.212764
    52  H    0.225205
    53  H    0.197461
    54  H    0.212166
    55  H    0.189988
    56  H    0.195944
    57  H    0.141496
    58  H    0.126855
 Sum of Mulliken atomic charges =  -1.00000
 Mulliken charges with hydrogens summed into heavy atoms:
              1
     1  C   -0.096681
     2  C   -0.064734
     3  C    0.007718
     4  C   -0.023908
     5  C    0.022669
     6  C   -0.019641
     7  C    0.063302
     8  C    0.034870
     9  C    0.271052
    10  C    0.435364
    11  C    0.307854
    12  C   -0.239234
    13  C    0.099059
    14  C    0.790450
    15  C    0.725614
    16  C    1.014557
    17  C    0.077566
    18  C    0.346164
    19  C    0.001035
    20  C   -0.021618
    21  C    0.284613
    22  C    0.278757
    23  C   -0.092956
    24  N   -0.542989
    25  N   -0.496807
    26  N   -0.471044
    27  N   -0.407423
    28  O   -0.633065
    29  O   -0.726849
    30  O   -0.681125
    31  O   -0.821829
    32  O   -0.712349
    33  S    0.291608
 Sum of Mulliken charges with hydrogens summed into heavy atoms =  -1.00000
 DipInt: DoE/N= T F RetVal/Mat= T F Init=T NMatP=  1 IDeriv=0 Min/MaxMlt=  0  4
 Entering OneElI...
 OneElI was handed    32786953 working-precision words.
 Multipole integrals L=0 to 4 MinM= 0 MaxM= 0.
 Requested accuracy = 0.1000D-12
 PrsmSu:  NPrtUS=   1 ThrOK=F IAlg=1 NPAlg=1 LenDen=           0.
 Prism:   IPart=     0 DynPar=F LinDyn=F Incr=          76.
 PRISM was handed    31975193 working-precision words and  7697 shell-pairs
 IPart=  0 NShTot=        7697 NBatch=          57 AvBLen=       135.0
 PrSmSu:  NxtVal=             77.
 Electronic moments (au):
       -248.00000000         23.10162940          1.31827975         -0.37384409
     -43897.16157936      -2464.32844305       -964.14932452        -11.77485142
        -10.72885218          0.01849236     145282.29587637      -1595.06414780
       -773.85168562     -11156.83115036      67968.92348901       1735.42403851
      -5512.06744158        351.86086134        469.30762398      -4398.35303201
  -13815501.71597545     -63623.68119852     -11738.55000383     330314.42818533
     -18305.80050140      22823.74961984      -1226.34809843      -7462.31760644
       -286.12650519    -379707.80610754    -169697.19392141      -8487.87512833
     -46703.62996210      15346.53882024       3229.67288119
 Electronic spatial extent (au):  <R**2>=          47325.6393
 DipInt: DoE/N= F T RetVal/Mat= T F Init=T NMatP=  1 IDeriv=0 Min/MaxMlt=  0  4
 Nuclear    moments (au):
        247.00000000          0.00000000          0.00000000          0.00000000
      43246.60443203       2313.00307848        821.15241424          0.00000000
          0.00000000          0.00000000    -133349.47802264       1641.47837877
        762.63796183      11430.81177904     -67591.44601000      -1599.20496942
       5547.20737686       -328.04806546       -476.17549196       4550.48551078
   13382917.27423485      55269.43878143       8505.87301626    -342232.54676117
       9199.60733723     -23008.14910488       1269.30782356       7798.01747979
        303.97961453     349818.73787383     142929.48521195       6511.45440857
      46855.67005626     -15811.79492630      -3032.45322823
 Total      moments (au):
         -1.00000000         23.10162940          1.31827975         -0.37384409
       -650.55714733       -151.32536457       -142.99691028        -11.77485142
        -10.72885218          0.01849236      11932.81785373         46.41423097
        -11.21372379        273.98062868        377.47747901        136.21906909
         35.13993528         23.81279588         -6.86786798        152.13247878
    -432584.44174060      -8354.24241708      -3232.67698756     -11918.11857584
      -9106.19316417       -184.39948504         42.95972514        335.69987335
         17.85310934     -29889.06823371     -26767.70870946      -1976.42071976
        152.04009416       -465.25610606        197.21965295
 Traceless Quadrup. (au):
       -335.59733994        163.63444282        171.96289711        -11.77485142
        -10.72885218          0.01849236
 Charge=             -1.0000 electrons
 Dipole moment (field-independent basis, Debye):
    X=             58.7185    Y=              3.3507    Z=             -0.9502  Tot=             58.8217
 Quadrupole moment (field-independent basis, Debye-Ang):
   XX=           -875.0216   YY=           -203.5378   ZZ=           -192.3357
   XY=            -15.8376   XZ=            -14.4307   YZ=              0.0249
 Traceless Quadrupole moment (field-independent basis, Debye-Ang):
   XX=           -451.3899   YY=            220.0939   ZZ=            231.2960
   XY=            -15.8376   XZ=            -14.4307   YZ=              0.0249
 Octapole moment (field-independent basis, Debye-Ang**2):
  XXX=           8493.3195  YYY=             33.0359  ZZZ=             -7.9815  XYY=            195.0088
  XXY=            268.6739  XXZ=             96.9555  XZZ=             25.0113  YZZ=             16.9490
  YYZ=             -4.8883  XYZ=            108.2820
 Hexadecapole moment (field-independent basis, Debye-Ang**3):
 XXXX=        -162932.0331 YYYY=          -3146.6081 ZZZZ=          -1217.5811 XXXY=          -4488.9347
 XXXZ=          -3429.8288 YYYX=            -69.4537 YYYZ=             16.1807 ZZZX=            126.4407
 ZZZY=              6.7243 XXYY=         -11257.6556 XXZZ=         -10082.0020 YYZZ=           -744.4148
 XXYZ=             57.2656 YYXZ=           -175.2377 ZZXY=             74.2824
 N-N= 2.999136636452D+03 E-N=-1.042469461615D+04  KE= 1.872530453614D+03
 Entering OneElI...
 OneElI was handed    32182152 working-precision words.
 Calculate electrostatic properties
    NBasis =   549  MinDer = 0  MaxDer = 0
    NGrid  =    58  NMatD  =   1
 Requested accuracy = 0.1000D-12
 PrsmSu:  NPrtUS=   1 ThrOK=F IAlg=1 NPAlg=1 LenDen=           0.
 Prism:   IPart=     0 DynPar=F LinDyn=F Incr=         512.
 PRISM was handed    31450080 working-precision words and  6484 shell-pairs
 IPart=  0 NShTot=      376072 NBatch=        6484 AvBLen=        58.0
 PrSmSu:  NxtVal=            513.
 --------------------------------------------------------
       Center         ----      EFG at Nuclei      ----
                      3XX-RR        3YY-RR        3ZZ-RR
 --------------------------------------------------------
     1   Atom        0.151079     -0.012113     -0.138966
     2   Atom        0.161385     -0.021423     -0.139961
     3   Atom        0.162702      0.024152     -0.186854
     4   Atom        0.170136      0.034159     -0.204295
     5   Atom       -0.047229     -0.082137      0.129367
     6   Atom       -0.013880     -0.084908      0.098788
     7   Atom       -0.075864     -0.078775      0.154639
     8   Atom        0.183726      0.028211     -0.211937
     9   Atom       -0.107658     -0.115889      0.223547
    10   Atom       -0.213070      0.231626     -0.018556
    11   Atom       -0.153115     -0.149204      0.302319
    12   Atom        0.021044     -0.015583     -0.005461
    13   Atom       -0.064990     -0.070670      0.135660
    14   Atom        0.056344      0.033338     -0.089682
    15   Atom        0.226392      0.297630     -0.524022
    16   Atom        0.027118      0.011755     -0.038873
    17   Atom       -0.033033     -0.033173      0.066206
    18   Atom        0.050201     -0.061161      0.010959
    19   Atom       -0.076327      0.045676      0.030651
    20   Atom        0.009520     -0.056253      0.046734
    21   Atom       -0.011852     -0.001549      0.013401
    22   Atom        0.019074     -0.089761      0.070687
    23   Atom        0.118891     -0.007249     -0.111642
    24   Atom       -0.147172     -0.242194      0.389366
    25   Atom       -0.186328     -0.190916      0.377244
    26   Atom        0.523249     -0.010476     -0.512773
    27   Atom       -0.177286      0.035210      0.142075
    28   Atom        1.282876     -0.369408     -0.913468
    29   Atom        0.684923     -0.287802     -0.397121
    30   Atom        0.676343     -0.110837     -0.565506
    31   Atom        1.017600     -0.714373     -0.303227
    32   Atom       -1.268373      0.347282      0.921090
    33   Atom       -0.129520      0.036355      0.093165
    34   Atom        0.127967     -0.003100     -0.124867
    35   Atom        0.208330      0.161547     -0.369877
    36   Atom        0.179464     -0.189544      0.010079
    37   Atom       -0.008967     -0.100519      0.109486
    38   Atom        0.009493      0.105727     -0.115220
    39   Atom        0.086658     -0.229622      0.142964
    40   Atom        0.129900      0.096697     -0.226598
    41   Atom        0.016119      0.088580     -0.104698
    42   Atom        0.037723     -0.151024      0.113300
    43   Atom        0.092638     -0.144444      0.051807
    44   Atom        0.122232     -0.131526      0.009294
    45   Atom        0.056323     -0.191223      0.134900
    46   Atom        0.135408      0.124229     -0.259636
    47   Atom        0.050812     -0.085702      0.034890
    48   Atom       -0.058107      0.058488     -0.000381
    49   Atom        0.054076      0.076660     -0.130736
    50   Atom        0.099394      0.111933     -0.211328
    51   Atom        0.102153      0.081930     -0.184083
    52   Atom        0.092945      0.121417     -0.214363
    53   Atom        0.031200     -0.080264      0.049064
    54   Atom        0.042417     -0.130421      0.088004
    55   Atom        0.038975     -0.127802      0.088827
    56   Atom        0.023380     -0.050483      0.027102
    57   Atom        0.118437     -0.181837      0.063399
    58   Atom        0.108072     -0.094438     -0.013633
 --------------------------------------------------------
                        XY            XZ            YZ
 --------------------------------------------------------
     1   Atom       -0.058396     -0.044766     -0.127826
     2   Atom       -0.019963     -0.059136     -0.132065
     3   Atom       -0.010178     -0.089875     -0.229038
     4   Atom       -0.077379     -0.033858     -0.212686
     5   Atom       -0.246396      0.016791      0.017950
     6   Atom       -0.216652      0.041101      0.020494
     7   Atom       -0.202706      0.038767      0.024611
     8   Atom       -0.039580     -0.060423     -0.232843
     9   Atom       -0.120057     -0.014886      0.042131
    10   Atom        0.011767      0.005488     -0.273515
    11   Atom       -0.028223      0.024099      0.042505
    12   Atom       -0.177308      0.146147     -0.122387
    13   Atom       -0.273909     -0.101901      0.132789
    14   Atom       -0.278507      0.154447      0.395167
    15   Atom        0.042187     -0.098788      0.145474
    16   Atom        0.146257     -0.268073      0.319520
    17   Atom        0.064456      0.030635     -0.025750
    18   Atom       -0.218018      0.148436      0.208669
    19   Atom       -0.016703      0.021231      0.003274
    20   Atom        0.023190      0.012825     -0.031711
    21   Atom       -0.139908      0.148789      0.184072
    22   Atom       -0.188372     -0.097271     -0.045518
    23   Atom        0.006810     -0.037100      0.003374
    24   Atom       -0.323044      0.505232     -0.425558
    25   Atom        0.349841     -0.514633     -0.504817
    26   Atom       -0.808088      0.338723     -0.251542
    27   Atom       -0.519051      0.478326     -0.626177
    28   Atom       -0.906323      0.280137     -0.240608
    29   Atom       -1.073353     -0.392660      0.208367
    30   Atom        1.140919      0.245189     -0.329578
    31   Atom        1.037688     -0.063484     -0.251276
    32   Atom       -0.504703      0.904813      0.953573
    33   Atom        2.026156      0.097086     -0.119206
    34   Atom        0.080895      0.171930     -0.290471
    35   Atom       -0.020280      0.102494     -0.164180
    36   Atom       -0.031220     -0.071431     -0.309486
    37   Atom        0.182780      0.057435     -0.090077
    38   Atom       -0.078886      0.177204      0.094635
    39   Atom        0.135641      0.006792     -0.002724
    40   Atom       -0.010695     -0.006171     -0.128725
    41   Atom       -0.075766      0.174312      0.113041
    42   Atom       -0.163176     -0.067898     -0.104878
    43   Atom       -0.108479      0.063010      0.170828
    44   Atom        0.069858      0.052630     -0.193994
    45   Atom        0.145551      0.026944     -0.048488
    46   Atom       -0.009295     -0.009371     -0.087738
    47   Atom       -0.135616     -0.100246     -0.162798
    48   Atom       -0.121724      0.175162      0.110964
    49   Atom        0.080590     -0.153969      0.132604
    50   Atom        0.061515     -0.140602      0.113842
    51   Atom        0.078621      0.134450     -0.156092
    52   Atom        0.057558     -0.151544      0.112024
    53   Atom       -0.161161      0.116794      0.171491
    54   Atom        0.171298     -0.081664      0.150485
    55   Atom        0.175946     -0.087586      0.156085
    56   Atom       -0.147878      0.125754      0.182048
    57   Atom       -0.100167      0.039573      0.162571
    58   Atom        0.100989      0.074243     -0.193609
 --------------------------------------------------------


 ---------------------------------------------------------------------------------
              Nuclear Quadrupole in Principal Axis System
 ---------------------------------------------------------------------------------

       Atom             a.u.   MegaHertz   Gauss  10(-4) cm-1        Axes

              Baa    -0.2307   -30.960   -11.047   -10.327  0.1784  0.5318  0.8279
     1 C(13)  Bbb     0.0608     8.164     2.913     2.723  0.2356  0.7938 -0.5606
              Bcc     0.1699    22.796     8.134     7.604  0.9553 -0.2951 -0.0164
 
              Baa    -0.2347   -31.495   -11.238   -10.506  0.1513  0.5306  0.8340
     2 C(13)  Bbb     0.0620     8.314     2.967     2.773 -0.1358  0.8469 -0.5142
              Bcc     0.1727    23.181     8.272     7.732  0.9791  0.0355 -0.2001
 
              Baa    -0.3465   -46.502   -16.593   -15.511  0.1583  0.5221  0.8380
     3 C(13)  Bbb     0.1338    17.955     6.407     5.989 -0.6755  0.6764 -0.2938
              Bcc     0.2127    28.547    10.186     9.522  0.7202  0.5195 -0.4598
 
              Baa    -0.3382   -45.379   -16.192   -15.137  0.1345  0.5124  0.8481
     4 C(13)  Bbb     0.1188    15.945     5.690     5.319  0.6239  0.6212 -0.4743
              Bcc     0.2193    29.434    10.503     9.818  0.7699 -0.5929  0.2361
 
              Baa    -0.3131   -42.010   -14.990   -14.013  0.6806  0.7305 -0.0555
     5 C(13)  Bbb     0.1307    17.543     6.260     5.852  0.0371  0.0412  0.9985
              Bcc     0.1823    24.467     8.730     8.161  0.7317 -0.6816  0.0010
 
              Baa    -0.2737   -36.732   -13.107   -12.253  0.6467  0.7543 -0.1129
     6 C(13)  Bbb     0.0990    13.291     4.743     4.433 -0.1149  0.2426  0.9633
              Bcc     0.1747    23.441     8.364     7.819  0.7540 -0.6100  0.2436
 
              Baa    -0.2846   -38.190   -13.627   -12.739  0.7027  0.7042 -0.1015
     7 C(13)  Bbb     0.1226    16.451     5.870     5.488 -0.6632  0.7000  0.2648
              Bcc     0.1620    21.739     7.757     7.251  0.2575 -0.1188  0.9589
 
              Baa    -0.3634   -48.761   -17.399   -16.265  0.1308  0.5164  0.8463
     8 C(13)  Bbb     0.1699    22.797     8.134     7.604  0.0984  0.8426 -0.5294
              Bcc     0.1935    25.964     9.265     8.661  0.9865 -0.1525 -0.0594
 
              Baa    -0.2328   -31.238   -11.146   -10.420  0.6889  0.7235 -0.0443
     9 C(13)  Bbb     0.0012     0.164     0.058     0.055  0.7183 -0.6732  0.1757
              Bcc     0.2316    31.074    11.088    10.365 -0.0973  0.1529  0.9835
 
              Baa    -0.2182   -29.277   -10.447    -9.766  0.9090 -0.2336 -0.3451
    10 C(13)  Bbb    -0.1892   -25.389    -9.059    -8.469  0.4166  0.4872  0.7675
              Bcc     0.4074    54.666    19.506    18.235  0.0112  0.8415 -0.5402
 
              Baa    -0.1840   -24.685    -8.808    -8.234  0.7118  0.6957 -0.0961
    11 C(13)  Bbb    -0.1233   -16.550    -5.905    -5.520 -0.7008  0.7127 -0.0315
              Bcc     0.3073    41.234    14.713    13.754  0.0466  0.0898  0.9949
 
              Baa    -0.1762   -23.649    -8.438    -7.888  0.7053  0.7017 -0.1007
    12 C(13)  Bbb    -0.1236   -16.591    -5.920    -5.534 -0.3149  0.4374  0.8424
              Bcc     0.2999    40.240    14.359    13.423  0.6351 -0.5624  0.5294
 
              Baa    -0.3430   -46.022   -16.422   -15.351  0.6910  0.7209 -0.0529
    13 C(13)  Bbb     0.0022     0.302     0.108     0.101  0.4839 -0.4070  0.7747
              Bcc     0.3407    45.720    16.314    15.251 -0.5370  0.5609  0.6301
 
              Baa    -0.5727   -76.853   -27.423   -25.635 -0.4355 -0.6235  0.6493
    14 C(13)  Bbb     0.1532    20.553     7.334     6.856  0.8106  0.0421  0.5841
              Bcc     0.4196    56.300    20.089    18.780 -0.3915  0.7807  0.4871
 
              Baa    -0.5629   -75.531   -26.951   -25.195  0.1314 -0.1715  0.9764
    15 C(13)  Bbb     0.2334    31.324    11.177    10.448  0.9554 -0.2407 -0.1708
              Bcc     0.3294    44.208    15.774    14.746  0.2643  0.9553  0.1322
 
              Baa    -0.5020   -67.365   -24.038   -22.471  0.4928 -0.5564  0.6691
    16 C(13)  Bbb     0.1642    22.039     7.864     7.352  0.7843  0.6170 -0.0646
              Bcc     0.3378    45.326    16.173    15.119 -0.3769  0.5566  0.7404
 
              Baa    -0.1068   -14.325    -5.112    -4.778  0.6926 -0.6854 -0.2247
    17 C(13)  Bbb     0.0311     4.173     1.489     1.392  0.6894  0.7207 -0.0730
              Bcc     0.0757    10.152     3.623     3.386  0.2120 -0.1043  0.9717
 
              Baa    -0.3927   -52.700   -18.805   -17.579  0.5106  0.6727 -0.5355
    18 C(13)  Bbb     0.1714    23.003     8.208     7.673  0.4702  0.3029  0.8289
              Bcc     0.2213    29.697    10.597     9.906  0.7199 -0.6750 -0.1617
 
              Baa    -0.0826   -11.090    -3.957    -3.699  0.9737  0.1315 -0.1863
    19 C(13)  Bbb     0.0347     4.658     1.662     1.554  0.1887 -0.0059  0.9820
              Bcc     0.0479     6.432     2.295     2.146 -0.1280  0.9913  0.0305
 
              Baa    -0.0733    -9.837    -3.510    -3.281 -0.2984  0.9144  0.2735
    20 C(13)  Bbb     0.0167     2.243     0.800     0.748  0.9436  0.3256 -0.0592
              Bcc     0.0566     7.593     2.709     2.533  0.1432 -0.2404  0.9601
 
              Baa    -0.3154   -42.329   -15.104   -14.119  0.5579  0.5906 -0.5830
    21 C(13)  Bbb     0.1241    16.652     5.942     5.554  0.8220 -0.4898  0.2905
              Bcc     0.1913    25.677     9.162     8.565  0.1140  0.6414  0.7587
 
              Baa    -0.2592   -34.781   -12.411   -11.602  0.6034  0.7463  0.2809
    22 C(13)  Bbb     0.0718     9.635     3.438     3.214  0.2223 -0.4957  0.8395
              Bcc     0.1874    25.146     8.973     8.388  0.7658 -0.4441 -0.4651
 
              Baa    -0.1176   -15.786    -5.633    -5.266  0.1560 -0.0398  0.9870
    23 C(13)  Bbb    -0.0074    -0.988    -0.353    -0.330 -0.0402  0.9981  0.0466
              Bcc     0.1250    16.775     5.986     5.595  0.9869  0.0469 -0.1541
 
              Baa    -0.5215   -20.112    -7.177    -6.709  0.6786  0.7337 -0.0336
    24 N(14)  Bbb    -0.4121   -15.894    -5.671    -5.302 -0.5524  0.5400  0.6350
              Bcc     0.9336    36.006    12.848    12.010  0.4840 -0.4123  0.7718
 
              Baa    -0.5386   -20.772    -7.412    -6.929  0.7236 -0.6897  0.0264
    25 N(14)  Bbb    -0.4596   -17.725    -6.325    -5.912  0.5105  0.5605  0.6521
              Bcc     0.9982    38.497    13.737    12.841 -0.4646 -0.4584  0.7577
 
              Baa    -0.6173   -23.807    -8.495    -7.941 -0.0549  0.3191  0.9461
    26 N(14)  Bbb    -0.5934   -22.886    -8.166    -7.634  0.6148  0.7574 -0.2198
              Bcc     1.2107    46.693    16.661    15.575  0.7868 -0.5696  0.2378
 
              Baa    -0.6048   -23.324    -8.323    -7.780  0.6897  0.7080  0.1518
    27 N(14)  Bbb    -0.4991   -19.251    -6.869    -6.421 -0.5405  0.3639  0.7586
              Bcc     1.1039    42.575    15.192    14.201  0.4818 -0.6053  0.6337
 
              Baa    -1.0079    72.930    26.023    24.327  0.0554  0.4200  0.9058
    28 O(17)  Bbb    -0.7225    52.281    18.655    17.439  0.4231  0.8119 -0.4023
              Bcc     1.7304  -125.212   -44.679   -41.766  0.9044 -0.4056  0.1327
 
              Baa    -0.9827    71.105    25.372    23.718  0.5521  0.8304  0.0747
    29 O(17)  Bbb    -0.4988    36.090    12.878    12.038  0.1514 -0.1880  0.9704
              Bcc     1.4814  -107.195   -38.250   -35.756  0.8199 -0.5245 -0.2296
 
              Baa    -1.1930    86.323    30.802    28.794 -0.4871  0.6803  0.5477
    30 O(17)  Bbb    -0.2967    21.470     7.661     7.162  0.3147 -0.4482  0.8367
              Bcc     1.4897  -107.793   -38.463   -35.956  0.8147  0.5799  0.0042
 
              Baa    -1.2432    89.960    32.100    30.008 -0.4029  0.8906  0.2109
    31 O(17)  Bbb    -0.2748    19.886     7.096     6.633  0.1708 -0.1532  0.9733
              Bcc     1.5181  -109.846   -39.196   -36.641  0.8992  0.4281 -0.0904
 
              Baa    -1.8999   137.476    49.055    45.857  0.8476  0.3569 -0.3925
    32 O(17)  Bbb     0.1987   -14.378    -5.131    -4.796 -0.5043  0.7718 -0.3872
              Bcc     1.7012  -123.098   -43.924   -41.061  0.1648  0.5262  0.8343
 
              Baa    -2.0851   -85.488   -30.504   -28.516  0.7194 -0.6910 -0.0699
    33 S(33)  Bbb     0.1037     4.250     1.517     1.418  0.0573 -0.0412  0.9975
              Bcc     1.9815    81.238    28.988    27.098  0.6922  0.7216 -0.0100
 
              Baa    -0.4229  -225.635   -80.512   -75.264 -0.3191  0.5801  0.7495
    34 H(1)   Bbb     0.1631    87.020    31.051    29.027  0.8027  0.5858 -0.1116
              Bcc     0.2598   138.615    49.461    46.237  0.5038 -0.5660  0.6526
 
              Baa    -0.4301  -229.505   -81.893   -76.555 -0.1450  0.2599  0.9547
    35 H(1)   Bbb     0.1676    89.407    31.902    29.823  0.6463  0.7555 -0.1075
              Bcc     0.2626   140.098    49.991    46.732  0.7492 -0.6014  0.2775
 
              Baa    -0.4225  -225.408   -80.431   -75.188  0.1115  0.7994  0.5904
    36 H(1)   Bbb     0.1652    88.147    31.453    29.403  0.8679 -0.3677  0.3339
              Bcc     0.2573   137.261    48.978    45.785 -0.4840 -0.4752  0.7348
 
              Baa    -0.2728  -145.539   -51.932   -48.547 -0.5874  0.7636  0.2682
    37 H(1)   Bbb     0.1263    67.363    24.037    22.470  0.7301  0.3571  0.5825
              Bcc     0.1465    78.177    27.895    26.077 -0.3490 -0.5380  0.7673
 
              Baa    -0.2799  -149.322   -53.282   -49.808 -0.5564 -0.3037  0.7734
    38 H(1)   Bbb     0.1295    69.083    24.651    23.044  0.6061  0.4884  0.6278
              Bcc     0.1504    80.239    28.631    26.765 -0.5683  0.8181 -0.0877
 
              Baa    -0.2799  -149.332   -53.285   -49.812 -0.3472  0.9377  0.0116
    39 H(1)   Bbb     0.1337    71.338    25.455    23.796  0.8084  0.3056 -0.5031
              Bcc     0.1462    77.994    27.830    26.016  0.4753  0.1653  0.8642
 
              Baa    -0.2718  -145.024   -51.748   -48.375  0.0233  0.3303  0.9436
    40 H(1)   Bbb     0.1260    67.219    23.986    22.422  0.8895  0.4240 -0.1704
              Bcc     0.1458    77.805    27.763    25.953 -0.4564  0.8433 -0.2839
 
              Baa    -0.2791  -148.917   -53.137   -49.673 -0.5413 -0.3470  0.7659
    41 H(1)   Bbb     0.1359    72.513    25.875    24.188 -0.6781  0.7188 -0.1535
              Bcc     0.1432    76.403    27.263    25.485  0.4972  0.6024  0.6244
 
              Baa    -0.2843  -151.698   -54.129   -50.601  0.4807  0.8241  0.2995
    42 H(1)   Bbb     0.1302    69.459    24.785    23.169  0.7936 -0.5542  0.2513
[...]
 **** Fit      -0.014835
 **** Fit      -0.014130
 **** Fit      -0.013083
 **** Fit      -0.011855
 **** Fit      -0.010583
 **** Fit      -0.009421
 **** Fit      -0.008585
 **** Fit      -0.008365
 **** Fit      -0.009067
 **** Fit      -0.010861
 **** Fit      -0.013625
 **** Fit      -0.016964
 **** Fit      -0.020414
 **** Fit      -0.016281
 **** Fit      -0.015569
 **** Fit      -0.014427
 **** Fit      -0.013006
 **** Fit      -0.011397
 **** Fit      -0.009671
 **** Fit      -0.007917
 **** Fit      -0.006293
 **** Fit      -0.005077
 **** Fit      -0.004676
 **** Fit      -0.005517
 **** Fit      -0.007810
 **** Fit      -0.011333
 **** Fit      -0.015520
 **** Fit      -0.019779
 **** Fit      -0.017368
 **** Fit      -0.015936
 **** Fit      -0.014195
 **** Fit      -0.012200
 **** Fit      -0.009969
 **** Fit      -0.007506
 **** Fit      -0.004855
 **** Fit      -0.002182
 **** Fit      -0.018017
 **** Fit      -0.015944
 **** Fit      -0.013603
 **** Fit      -0.010953
 **** Fit      -0.007916
 **** Fit      -0.004393
 **** Fit      -0.015048
 **** Fit      -0.011904
 **** Fit      -0.008225
 **** Fit      -0.003757
 **** Fit      -0.011635
 **** Fit      -0.006764
 **** Fit      -0.020321
 **** Fit      -0.020421
 **** Fit      -0.019201
 **** Fit      -0.019093
 **** Fit      -0.020476
 **** Fit      -0.021803
 **** Fit      -0.021673
 **** Fit      -0.020826
 **** Fit      -0.019507
 **** Fit      -0.018458
 **** Fit      -0.017812
 **** Fit      -0.017855
 **** Fit      -0.018948
 **** Fit      -0.020845
 **** Fit      -0.022625
 **** Fit      -0.023633
 **** Fit      -0.023809
 **** Fit      -0.023283
 **** Fit      -0.022197
 **** Fit      -0.021584
 **** Fit      -0.020248
 **** Fit      -0.019090
 **** Fit      -0.018104
 **** Fit      -0.017258
 **** Fit      -0.016614
 **** Fit      -0.016451
 **** Fit      -0.017207
 **** Fit      -0.019030
 **** Fit      -0.021408
 **** Fit      -0.023558
 **** Fit      -0.025028
 **** Fit      -0.025798
 **** Fit      -0.026037
 **** Fit      -0.025869
 **** Fit      -0.025296
 **** Fit      -0.024308
 **** Fit      -0.023002
 **** Fit      -0.022750
 **** Fit      -0.021302
 **** Fit      -0.020052
 **** Fit      -0.018977
 **** Fit      -0.017996
 **** Fit      -0.017013
 **** Fit      -0.015990
 **** Fit      -0.015058
 **** Fit      -0.014647
 **** Fit      -0.028130
 **** Fit      -0.028474
 **** Fit      -0.028573
 **** Fit      -0.028455
 **** Fit      -0.028018
 **** Fit      -0.027150
 **** Fit      -0.025865
 **** Fit      -0.024327
 **** Fit      -0.024381
 **** Fit      -0.022725
 **** Fit      -0.021329
 **** Fit      -0.020164
 **** Fit      -0.019136
 **** Fit      -0.018116
 **** Fit      -0.016959
 **** Fit      -0.015548
 **** Fit      -0.031535
 **** Fit      -0.031707
 **** Fit      -0.031619
 **** Fit      -0.031026
 **** Fit      -0.029828
 **** Fit      -0.028146
 **** Fit      -0.026244
 **** Fit      -0.026542
 **** Fit      -0.024613
 **** Fit      -0.023035
 **** Fit      -0.021762
 **** Fit      -0.020699
 **** Fit      -0.019719
 **** Fit      -0.018666
 **** Fit      -0.017355
 **** Fit      -0.015584
 **** Fit      -0.035723
 **** Fit      -0.036255
 **** Fit      -0.036192
 **** Fit      -0.035253
 **** Fit      -0.033484
 **** Fit      -0.031200
 **** Fit      -0.028788
 **** Fit      -0.029298
 **** Fit      -0.026882
 **** Fit      -0.024994
 **** Fit      -0.023544
 **** Fit      -0.022403
 **** Fit      -0.021423
 **** Fit      -0.020427
 **** Fit      -0.019205
 **** Fit      -0.035616
 **** Fit      -0.032255
 **** Fit      -0.032711
 **** Fit      -0.029663
 **** Fit      -0.027393
 **** Fit      -0.025732
 **** Fit      -0.024506
 **** Fit      -0.023543
 **** Fit      -0.022666
 **** Fit      -0.032866
 **** Fit      -0.030099
 **** Fit      -0.028187
 **** Fit      -0.026872
 **** Fit      -0.076105
 **** Fit      -0.075328
 **** Fit      -0.077708
 **** Fit      -0.078576
 **** Fit      -0.077511
 **** Fit      -0.075371
 **** Fit      -0.074123
 **** Fit      -0.081377
 **** Fit      -0.081536
 **** Fit      -0.080972
 **** Fit      -0.079654
 **** Fit      -0.077665
 **** Fit      -0.075445
 **** Fit      -0.073598
 **** Fit      -0.072646
 **** Fit      -0.073036
 **** Fit      -0.084991
 **** Fit      -0.084648
 **** Fit      -0.083920
 **** Fit      -0.082640
 **** Fit      -0.080792
 **** Fit      -0.078570
 **** Fit      -0.076292
 **** Fit      -0.074262
 **** Fit      -0.072692
 **** Fit      -0.071715
 **** Fit      -0.071512
 **** Fit      -0.088894
 **** Fit      -0.088674
 **** Fit      -0.088208
 **** Fit      -0.087268
 **** Fit      -0.085722
 **** Fit      -0.083627
 **** Fit      -0.081199
 **** Fit      -0.078703
 **** Fit      -0.076378
 **** Fit      -0.074382
 **** Fit      -0.072783
 **** Fit      -0.071576
 **** Fit      -0.093377
 **** Fit      -0.093344
 **** Fit      -0.093058
 **** Fit      -0.092226
 **** Fit      -0.090674
 **** Fit      -0.088462
 **** Fit      -0.085812
 **** Fit      -0.082996
 **** Fit      -0.080261
 **** Fit      -0.077787
 **** Fit      -0.075675
 **** Fit      -0.073939
 **** Fit      -0.072510
 **** Fit      -0.096742
 **** Fit      -0.094427
 **** Fit      -0.091567
 **** Fit      -0.088454
 **** Fit      -0.085345
 **** Fit      -0.082437
 **** Fit      -0.079863
 **** Fit      -0.077683
 **** Fit      -0.075889
 **** Fit      -0.074393
 **** Fit      -0.101257
 **** Fit      -0.097952
 **** Fit      -0.094320
 **** Fit      -0.090667
 **** Fit      -0.087227
 **** Fit      -0.084162
 **** Fit      -0.081558
 **** Fit      -0.079436
 **** Fit      -0.077746
 **** Fit      -0.076352
 **** Fit      -0.105340
 **** Fit      -0.101201
 **** Fit      -0.097005
 **** Fit      -0.093023
 **** Fit      -0.089448
 **** Fit      -0.086392
 **** Fit      -0.083902
 **** Fit      -0.081968
 **** Fit      -0.080532
 **** Fit      -0.101280
 **** Fit      -0.096938
 **** Fit      -0.093144
 **** Fit      -0.089992
 **** Fit      -0.087518
 **** Fit      -0.085722
 **** Fit      -0.099584
 **** Fit      -0.095844
 **** Fit      -0.092936
 **** Fit      -0.082264
 **** Fit      -0.084784
 **** Fit      -0.088176
 **** Fit      -0.092538
 **** Fit      -0.076895
 **** Fit      -0.078737
 **** Fit      -0.081184
 **** Fit      -0.084380
 **** Fit      -0.088449
 **** Fit      -0.093477
 **** Fit      -0.071510
 **** Fit      -0.073067
 **** Fit      -0.074818
 **** Fit      -0.077002
 **** Fit      -0.079803
 **** Fit      -0.083374
 **** Fit      -0.087845
 **** Fit      -0.093309
 **** Fit      -0.068452
 **** Fit      -0.070215
 **** Fit      -0.072014
 **** Fit      -0.074133
 **** Fit      -0.076784
 **** Fit      -0.080142
 **** Fit      -0.084352
 **** Fit      -0.089525
 **** Fit      -0.095705
 **** Fit      -0.068217
 **** Fit      -0.069954
 **** Fit      -0.071944
 **** Fit      -0.074390
 **** Fit      -0.077462
 **** Fit      -0.081302
 **** Fit      -0.086012
 **** Fit      -0.091625
 **** Fit      -0.098046
 **** Fit      -0.104968
 **** Fit      -0.066519
 **** Fit      -0.067819
 **** Fit      -0.069444
 **** Fit      -0.071476
 **** Fit      -0.074069
 **** Fit      -0.077380
 **** Fit      -0.081528
 **** Fit      -0.086558
 **** Fit      -0.092381
 **** Fit      -0.098687
 **** Fit      -0.104872
 **** Fit      -0.110099
 **** Fit      -0.068057
 **** Fit      -0.068537
 **** Fit      -0.069796
 **** Fit      -0.071722
 **** Fit      -0.074372
 **** Fit      -0.077844
 **** Fit      -0.082186
 **** Fit      -0.087315
 **** Fit      -0.092922
 **** Fit      -0.098412
 **** Fit      -0.102972
 **** Fit      -0.073291
 **** Fit      -0.071048
 **** Fit      -0.070493
 **** Fit      -0.071294
 **** Fit      -0.073206
 **** Fit      -0.076167
 **** Fit      -0.080144
 **** Fit      -0.084954
 **** Fit      -0.090107
 **** Fit      -0.094762
 **** Fit      -0.097954
 **** Fit      -0.099041
 **** Fit      -0.098036
 **** Fit      -0.075506
 **** Fit      -0.073523
 **** Fit      -0.073823
 **** Fit      -0.076122
 **** Fit      -0.080053
 **** Fit      -0.084938
 **** Fit      -0.089462
 **** Fit      -0.092008
 **** Fit      -0.091696
 **** Fit      -0.088853
 **** Fit      -0.084419
 **** Fit      -0.079519
 **** Fit      -0.078089
 **** Fit      -0.077123
 **** Fit      -0.080394
 **** Fit      -0.084960
 **** Fit      -0.086062
 **** Fit      -0.082516
 **** Fit      -0.081200
 **** Fit      -0.067118
 **** Fit      -0.066145
 **** Fit      -0.068565
 **** Fit      -0.069868
 **** Fit      -0.068618
 **** Fit      -0.066224
 **** Fit      -0.065017
 **** Fit      -0.065775
 **** Fit      -0.068152
 **** Fit      -0.070592
 **** Fit      -0.072525
 **** Fit      -0.073332
 **** Fit      -0.072575
 **** Fit      -0.070557
 **** Fit      -0.068117
 **** Fit      -0.065870
 **** Fit      -0.064207
 **** Fit      -0.063522
 **** Fit      -0.064075
 **** Fit      -0.066088
 **** Fit      -0.068449
 **** Fit      -0.070904
 **** Fit      -0.073238
 **** Fit      -0.072804
 **** Fit      -0.070324
 **** Fit      -0.068074
 **** Fit      -0.066057
 **** Fit      -0.064342
 **** Fit      -0.063119
 **** Fit      -0.062604
 **** Fit      -0.062942
 **** Fit      -0.064153
 **** Fit      -0.067189
 **** Fit      -0.069751
 **** Fit      -0.072320
 **** Fit      -0.074707
 **** Fit      -0.071326
 **** Fit      -0.069308
 **** Fit      -0.067414
 **** Fit      -0.065610
 **** Fit      -0.064030
 **** Fit      -0.062862
 **** Fit      -0.062277
 **** Fit      -0.062402
 **** Fit      -0.063302
 **** Fit      -0.064948
 **** Fit      -0.069237
 **** Fit      -0.072231
 **** Fit      -0.075110
 **** Fit      -0.077580
 **** Fit      -0.069879
 **** Fit      -0.068124
 **** Fit      -0.066324
 **** Fit      -0.064678
 **** Fit      -0.063381
 **** Fit      -0.062595
 **** Fit      -0.062449
 **** Fit      -0.063036
 **** Fit      -0.064405
 **** Fit      -0.066525
 **** Fit      -0.072486
 **** Fit      -0.071211
 **** Fit      -0.069479
 **** Fit      -0.067631
 **** Fit      -0.065907
 **** Fit      -0.064492
 **** Fit      -0.063533
 **** Fit      -0.063148
 **** Fit      -0.063443
 **** Fit      -0.064507
 **** Fit      -0.066401
 **** Fit      -0.069111
 **** Fit      -0.072735
 **** Fit      -0.070710
 **** Fit      -0.068681
 **** Fit      -0.066884
 **** Fit      -0.065490
 **** Fit      -0.064633
 **** Fit      -0.064433
 **** Fit      -0.065016
 **** Fit      -0.066514
 **** Fit      -0.069057
 **** Fit      -0.074639
 **** Fit      -0.072317
 **** Fit      -0.070156
 **** Fit      -0.068346
 **** Fit      -0.067026
 **** Fit      -0.066318
 **** Fit      -0.066354
 **** Fit      -0.067294
 **** Fit      -0.069350
 **** Fit      -0.074980
 **** Fit      -0.072609
 **** Fit      -0.070680
 **** Fit      -0.069319
 **** Fit      -0.068655
 **** Fit      -0.068846
 **** Fit      -0.070121
 **** Fit      -0.074382
 **** Fit      -0.072634
 **** Fit      -0.071690
 **** Fit      -0.071751
 **** Fit      -0.073142
 **** Fit      -0.075181
 **** Fit      -0.065873
 **** Fit      -0.068280
 **** Fit      -0.062736
 **** Fit      -0.064839
 **** Fit      -0.067294
 **** Fit      -0.070149
 **** Fit      -0.058999
 **** Fit      -0.060846
 **** Fit      -0.062938
 **** Fit      -0.065352
 **** Fit      -0.068082
 **** Fit      -0.056169
 **** Fit      -0.057928
 **** Fit      -0.059860
 **** Fit      -0.062063
 **** Fit      -0.064545
 **** Fit      -0.067220
 **** Fit      -0.052275
 **** Fit      -0.053960
 **** Fit      -0.055634
 **** Fit      -0.057431
 **** Fit      -0.059451
 **** Fit      -0.061724
 **** Fit      -0.064198
 **** Fit      -0.066716
 **** Fit      -0.051313
 **** Fit      -0.052888
 **** Fit      -0.054538
 **** Fit      -0.056355
 **** Fit      -0.058421
 **** Fit      -0.060757
 **** Fit      -0.063298
 **** Fit      -0.065875
 **** Fit      -0.051486
 **** Fit      -0.052662
 **** Fit      -0.054131
 **** Fit      -0.055882
 **** Fit      -0.057950
 **** Fit      -0.060337
 **** Fit      -0.062972
 **** Fit      -0.065718
 **** Fit      -0.053526
 **** Fit      -0.053713
 **** Fit      -0.054755
 **** Fit      -0.056400
 **** Fit      -0.058564
 **** Fit      -0.061178
 **** Fit      -0.064129
 **** Fit      -0.067317
 **** Fit      -0.062806
 **** Fit      -0.056545
 **** Fit      -0.056495
 **** Fit      -0.057947
 **** Fit      -0.060468
 **** Fit      -0.063728
 **** Fit      -0.067385
 **** Fit      -0.068327
 **** Fit      -0.063081
 **** Fit      -0.058711
 **** Fit      -0.059826
 **** Fit      -0.060249
 **** Fit      -0.063496
 **** Fit      -0.067091
 **** Fit      -0.067322
 **** Fit      -0.063238
 **** Fit      -0.063354
 **** Fit      -0.116251
 **** Fit      -0.113765
 **** Fit      -0.112645
 **** Fit      -0.112728
 **** Fit      -0.128131
 **** Fit      -0.120690
 **** Fit      -0.115503
 **** Fit      -0.112053
 **** Fit      -0.109996
 **** Fit      -0.109075
 **** Fit      -0.109020
 **** Fit      -0.105331
 **** Fit      -0.116372
 **** Fit      -0.141761
 **** Fit      -0.130182
 **** Fit      -0.121739
 **** Fit      -0.115653
 **** Fit      -0.111380
 **** Fit      -0.108530
 **** Fit      -0.106792
 **** Fit      -0.105857
 **** Fit      -0.103310
 **** Fit      -0.102443
 **** Fit      -0.104346
 **** Fit      -0.108998
 **** Fit      -0.115465
 **** Fit      -0.123440
 **** Fit      -0.137698
 **** Fit      -0.126838
 **** Fit      -0.118777
 **** Fit      -0.112946
 **** Fit      -0.108867
 **** Fit      -0.106146
 **** Fit      -0.104420
 **** Fit      -0.103058
 **** Fit      -0.102189
 **** Fit      -0.101949
 **** Fit      -0.102686
 **** Fit      -0.104954
 **** Fit      -0.109084
 **** Fit      -0.115014
 **** Fit      -0.122473
 **** Fit      -0.131148
 **** Fit      -0.145429
 **** Fit      -0.133381
 **** Fit      -0.123601
 **** Fit      -0.116161
 **** Fit      -0.110764
 **** Fit      -0.107030
 **** Fit      -0.104580
 **** Fit      -0.104381
 **** Fit      -0.103644
 **** Fit      -0.104222
 **** Fit      -0.106475
 **** Fit      -0.110706
 **** Fit      -0.116859
 **** Fit      -0.124558
 **** Fit      -0.133263
 **** Fit      -0.142224
 **** Fit      -0.141785
 **** Fit      -0.131680
 **** Fit      -0.122415
 **** Fit      -0.115083
 **** Fit      -0.109817
 **** Fit      -0.106363
 **** Fit      -0.107203
 **** Fit      -0.106866
 **** Fit      -0.109187
 **** Fit      -0.114310
 **** Fit      -0.121689
 **** Fit      -0.129854
 **** Fit      -0.136184
 **** Fit      -0.137173
 **** Fit      -0.131777
 **** Fit      -0.123289
 **** Fit      -0.115481
 **** Fit      -0.110041
 **** Fit      -0.111566
 **** Fit      -0.112828
 **** Fit      -0.119402
 **** Fit      -0.125679
 **** Fit      -0.123843
 **** Fit      -0.116326
 **** Fit      -0.117627
 **** Fit      -0.116501
 **** Fit      -0.110698
 **** Fit      -0.119792
 **** Fit      -0.113760
 **** Fit      -0.108194
 **** Fit      -0.103559
 **** Fit      -0.126118
 **** Fit      -0.119472
 **** Fit      -0.113291
 **** Fit      -0.108019
 **** Fit      -0.103896
 **** Fit      -0.129154
 **** Fit      -0.121713
 **** Fit      -0.115085
 **** Fit      -0.109593
 **** Fit      -0.105386
 **** Fit      -0.102522
 **** Fit      -0.101031
 **** Fit      -0.132750
 **** Fit      -0.124522
 **** Fit      -0.117447
 **** Fit      -0.111692
 **** Fit      -0.107301
 **** Fit      -0.104278
 **** Fit      -0.102650
 **** Fit      -0.144456
 **** Fit      -0.133858
 **** Fit      -0.124845
 **** Fit      -0.117520
 **** Fit      -0.111832
 **** Fit      -0.107696
 **** Fit      -0.105058
 **** Fit      -0.103933
 **** Fit      -0.104451
 **** Fit      -0.134500
 **** Fit      -0.125187
 **** Fit      -0.117922
 **** Fit      -0.112470
 **** Fit      -0.108652
 **** Fit      -0.106370
 **** Fit      -0.105618
 **** Fit      -0.106508
 **** Fit      -0.138285
 **** Fit      -0.128106
 **** Fit      -0.120380
 **** Fit      -0.114691
 **** Fit      -0.110761
 **** Fit      -0.108429
 **** Fit      -0.107638
 **** Fit      -0.108434
 **** Fit      -0.137043
 **** Fit      -0.127095
 **** Fit      -0.119861
 **** Fit      -0.114817
 **** Fit      -0.111640
 **** Fit      -0.110159
 **** Fit      -0.110311
 **** Fit      -0.112114
 **** Fit      -0.138334
 **** Fit      -0.128155
 **** Fit      -0.121044
 **** Fit      -0.116348
 **** Fit      -0.113682
 **** Fit      -0.112829
 **** Fit      -0.113675
 **** Fit      -0.139029
 **** Fit      -0.129208
 **** Fit      -0.122589
 **** Fit      -0.118471
 **** Fit      -0.116434
 **** Fit      -0.116215
 **** Fit      -0.145700
 **** Fit      -0.134099
 **** Fit      -0.126580
 -----------------------------------------------------------------
 Leave Link  602 at Wed Jun 22 16:59:44 2016, MaxMem=   33554432 cpu:      12.0

 Test job not archived.
 1\1\GINC-NODE38\FOpt\RHF\6-31G(d)\C23H25N4O5S1(1-)\DAVE\22-Jun-2016\0\
 \#HF/6-31G* SCF=tight Test Pop=MK iop(6/33=2) iop(6/42=6) opt\\remark 
 line goes here\\-1,1\C,4.2575330329,-0.0303576688,8.8285824826\C,2.784
 7066615,-0.4693490197,6.9958142144\C,5.1613790355,-0.944432871,8.29354
 17405\C,3.6950770498,-1.3703660342,6.4842908193\C,-4.6688404457,9.2650
 805168,13.3291127502\C,-3.3620680761,8.9886182315,13.0093608322\C,-3.2
 154880346,7.3064527378,14.7383016786\C,4.9096852621,-1.6366413648,7.12
 0662983\C,-5.2745426143,8.5620851286,14.3652709844\C,3.0617176745,0.20
 6585978,8.1778714041\C,-2.6268301086,8.0143229982,13.7048207219\C,-4.5
 37987562,7.6004368886,15.0453490492\C,-6.8605108526,7.9546557582,15.75
 6389821\C,-0.3695703877,6.9332039349,13.7466596851\C,6.5913410584,-5.1
 521238934,6.4656374047\C,1.5005647793,4.2542561172,11.6995889527\C,-8.
 1957374455,7.9039811139,16.4341474676\C,2.2356378234,1.6812821386,9.86
 04085493\C,5.8864219121,-2.6537647502,6.5672550184\C,0.9819808698,7.05
 38944495,13.0630518112\C,0.9586090232,2.4749925473,10.094597738\C,1.92
 80377528,5.9131366218,13.4304026525\C,5.5846644037,-4.0916167419,7.003
 0378079\N,-6.5829559629,8.7336687902,14.7964626737\N,-1.2946120397,7.8
 231048995,13.2919198637\N,0.8969152663,3.0667890434,11.4171447229\N,1.
 4594182056,4.6082098821,13.0218150827\O,-0.5826501875,6.1323322411,14.
 6167829993\O,6.30453279,-6.314345126,6.7591567078\O,2.0253436519,4.945
 0965316,10.8617302255\O,7.549361965,-4.7135787358,5.8231824131\O,2.104
 964655,1.0774982844,8.6105159223\S,-5.5529053888,6.8912480803,16.27710
 22491\H,0.7303475723,4.225619755,13.5819913632\H,0.7201890434,2.451663
 8886,12.1792962672\H,-0.9985634465,8.4115483258,12.5465432975\H,2.8848
 39113,6.0900791278,12.9627208424\H,2.0743290211,5.8866443798,14.501210
 6684\H,0.1051607886,1.8191718354,9.9750320644\H,0.879519572,3.26330132
 51,9.3624923606\H,0.8545326055,7.0846619433,11.9865804659\H,1.42189412
 92,8.0044318523,13.3598379845\H,5.8884824048,-2.608866554,5.4835628927
 \H,6.8947361551,-2.4026289625,6.8733604225\H,3.094023882,2.3442681181,
 9.8909662045\H,2.3574614402,0.9295567036,10.6375472389\H,-8.6386203392
 ,6.9177892023,16.3429617961\H,-8.1026932007,8.1314684579,17.4908935293
 \H,-8.8488247477,8.6302741378,15.9707297282\H,-2.667603304,6.561552966
 6,15.2731011916\H,-2.8903727182,9.5283154392,12.2064149491\H,-5.224547
 6861,10.0106352739,12.7916141862\H,3.4612073389,-1.8857620329,5.568473
 8964\H,6.0877871529,-1.1162103622,8.8143935737\H,1.852752149,-0.274808
 4399,6.4959641055\H,4.507523637,0.4818114976,9.7387799715\H,5.57732914
 07,-4.1578170194,8.0901246275\H,4.58491653,-4.383057567,6.6864369432\\
 Version=EM64L-G09RevC.01\State=1-A\HF=-1875.2457177\RMSD=4.336e-09\RMS
 F=2.120e-06\Dipole=-11.834811,15.8627506,9.717134\Quadrupole=22.120169
 2,-98.0803757,75.9602065,196.8067259,116.2869057,-152.9224844\PG=C01 [
 X(C23H25N4O5S1)]\\@


 The mind is not a vessel to be filled but a fire to be kindled.
                                  -- Plutarch
 Job cpu time:  0 days  5 hours 59 minutes 55.9 seconds.
 File lengths (MBytes):  RWF=    198 Int=      0 D2E=      0 Chk=     23 Scr=      1
 Normal termination of Gaussian 09 at Wed Jun 22 16:59:45 2016.
