 Entering Gaussian System, Link 0=/usr/local/g09_c01/g09
 Initial command:
 /usr/local/g09_c01/l1.exe /scr/gf/dave/81308/Gau-4905.inp -scrdir=/scr/gf/dave/81308/
 Entering Link 1 = /usr/local/g09_c01/l1.exe PID=      4907.
  
 Copyright (c) 1988,1990,1992,1993,1995,1998,2003,2009,2011,
            Gaussian, Inc.  All Rights Reserved.
  
 This is part of the Gaussian(R) 09 program.  It is based on
 the Gaussian(R) 03 system (copyright 2003, Gaussian, Inc.),
 the Gaussian(R) 98 system (copyright 1998, Gaussian, Inc.),
 the Gaussian(R) 94 system (copyright 1995, Gaussian, Inc.),
 the Gaussian 92(TM) system (copyright 1992, Gaussian, Inc.),
 the Gaussian 90(TM) system (copyright 1990, Gaussian, Inc.),
 the Gaussian 88(TM) system (copyright 1988, Gaussian, Inc.),
 the Gaussian 86(TM) system (copyright 1986, Carnegie Mellon
 University), and the Gaussian 82(TM) system (copyright 1983,
 Carnegie Mellon University). Gaussian is a federally registered
 trademark of Gaussian, Inc.
  
 This software contains proprietary and confidential information,
 including trade secrets, belonging to Gaussian, Inc.
  
 This software is provided under written license and may be
 used, copied, transmitted, or stored only in accord with that
 written license.
  
 The following legend is applicable only to US Government
 contracts under FAR:
  
                    RESTRICTED RIGHTS LEGEND
  
 Use, reproduction and disclosure by the US Government is
 subject to restrictions as set forth in subparagraphs (a)
 and (c) of the Commercial Computer Software - Restricted
 Rights clause in FAR 52.227-19.
  
 Gaussian, Inc.
 340 Quinnipiac St., Bldg. 40, Wallingford CT 06492
  
  
 ---------------------------------------------------------------
 Warning -- This program may not be used in any manner that
 competes with the business of Gaussian, Inc. or will provide
 assistance to any competitor of Gaussian, Inc.  The licensee
 of this program is prohibited from giving any competitor of
 Gaussian, Inc. access to this program.  By using this program,
 the user acknowledges that Gaussian, Inc. is engaged in the
 business of creating and licensing software in the field of
 computational chemistry and represents and warrants to the
 licensee that it is not a competitor of Gaussian, Inc. and that
 it will not use this program in any manner prohibited above.
 ---------------------------------------------------------------
  

 Cite this work as:
 Gaussian 09, Revision C.01,
 M. J. Frisch, G. W. Trucks, H. B. Schlegel, G. E. Scuseria, 
 M. A. Robb, J. R. Cheeseman, G. Scalmani, V. Barone, B. Mennucci, 
 G. A. Petersson, H. Nakatsuji, M. Caricato, X. Li, H. P. Hratchian, 
 A. F. Izmaylov, J. Bloino, G. Zheng, J. L. Sonnenberg, M. Hada, 
 M. Ehara, K. Toyota, R. Fukuda, J. Hasegawa, M. Ishida, T. Nakajima, 
 Y. Honda, O. Kitao, H. Nakai, T. Vreven, J. A. Montgomery, Jr., 
 J. E. Peralta, F. Ogliaro, M. Bearpark, J. J. Heyd, E. Brothers, 
 K. N. Kudin, V. N. Staroverov, T. Keith, R. Kobayashi, J. Normand, 
 K. Raghavachari, A. Rendell, J. C. Burant, S. S. Iyengar, J. Tomasi, 
 M. Cossi, N. Rega, J. M. Millam, M. Klene, J. E. Knox, J. B. Cross, 
 V. Bakken, C. Adamo, J. Jaramillo, R. Gomperts, R. E. Stratmann, 
 O. Yazyev, A. J. Austin, R. Cammi, C. Pomelli, J. W. Ochterski, 
 R. L. Martin, K. Morokuma, V. G. Zakrzewski, G. A. Voth, 
 P. Salvador, J. J. Dannenberg, S. Dapprich, A. D. Daniels, 
 O. Farkas, J. B. Foresman, J. V. Ortiz, J. Cioslowski, 
 and D. J. Fox, Gaussian, Inc., Wallingford CT, 2010.
 
 ******************************************
 Gaussian 09:  EM64L-G09RevC.01 23-Sep-2011
                22-Jun-2016 
 ******************************************
 %chk=molecule
 ------------------------------------------------------------
 #HF/6-31G* SCF=tight Test Pop=MK iop(6/33=2) iop(6/42=6) opt
 ------------------------------------------------------------
 1/18=20,19=15,38=1/1,3;
 2/9=110,12=2,17=6,18=5,40=1/2;
 3/5=1,6=6,7=1,11=9,16=1,25=1,30=1,71=1/1,2,3;
 4//1;
 5/5=2,32=2,38=5/2;
 6/7=2,8=2,9=2,10=2,15=8,20=1,28=1,33=2,42=6/1,2;
 7//1,2,3,16;
 1/18=20,19=15/3(2);
 2/9=110/2;
 99//99;
 2/9=110/2;
 3/5=1,6=6,7=1,11=9,16=1,25=1,30=1,71=1/1,2,3;
 4/5=5,16=3/1;
 5/5=2,32=2,38=5/2;
 7//1,2,3,16;
 1/18=20,19=15/3(-5);
 2/9=110/2;
 6/7=2,8=2,9=2,10=2,15=8,19=2,20=1,28=1,33=2,42=6/1,2;
 99/9=1/99;
 ---------------------
 remark line goes here
 ---------------------
 Charge = -2 Multiplicity = 1
 Symbolic Z-Matrix:
 C                     1.438     1.492     9.27 
 O                     2.162     0.319     9.621 
 C                     2.901    -0.291     8.643 
 C                     2.388    -0.765     7.445 
 C                     3.23     -1.391     6.514 
 C                     4.588    -1.531     6.778 
 C                     5.087    -1.07      7.989 
 C                     4.273    -0.446     8.912 
 O                     4.707     0.045     10.105 
 C                     6.119     0.353     10.232 
 C                     5.507    -2.232     5.834 
 C                     5.878    -3.65      6.299 
 C                     4.667    -4.55      6.28 
 O                     3.831    -4.461     5.428 
 O                     4.627    -5.442     7.252 
 C                     6.954    -4.251     5.436 
 O                     6.707    -5.179     4.678 
 O                     8.153    -3.659     5.554 
 H                     6.253    -3.586     7.331 
 H                     6.431    -1.642     5.739 
 H                     5.015    -2.303     4.853 
 H                     6.71     -0.559     10.062 
 H                     6.397     1.114     9.488 
 H                     6.321     0.738     11.243 
 H                     6.139    -1.203     8.214 
 H                     2.821    -1.767     5.583 
 H                     1.333    -0.65      7.227 
 H                     2.137     2.263     8.915 
 H                     0.719     1.254     8.472 
 H                     0.896     1.866     10.151 
 

 GradGradGradGradGradGradGradGradGradGradGradGradGradGradGradGradGradGrad
 Berny optimization.
 Initialization pass.
                           ----------------------------
                           !    Initial Parameters    !
                           ! (Angstroms and Degrees)  !
 --------------------------                            --------------------------
 ! Name  Definition              Value          Derivative Info.                !
 --------------------------------------------------------------------------------
 ! R1    R(1,2)                  1.4224         estimate D2E/DX2                !
 ! R2    R(1,28)                 1.0996         estimate D2E/DX2                !
 ! R3    R(1,29)                 1.1002         estimate D2E/DX2                !
 ! R4    R(1,30)                 1.0999         estimate D2E/DX2                !
 ! R5    R(2,3)                  1.3692         estimate D2E/DX2                !
 ! R6    R(3,4)                  1.3867         estimate D2E/DX2                !
 ! R7    R(3,8)                  1.4067         estimate D2E/DX2                !
 ! R8    R(4,5)                  1.4027         estimate D2E/DX2                !
 ! R9    R(4,27)                 1.0834         estimate D2E/DX2                !
 ! R10   R(5,6)                  1.3905         estimate D2E/DX2                !
 ! R11   R(5,26)                 1.0842         estimate D2E/DX2                !
 ! R12   R(6,7)                  1.3885         estimate D2E/DX2                !
 ! R13   R(6,11)                 1.4923         estimate D2E/DX2                !
 ! R14   R(7,8)                  1.3798         estimate D2E/DX2                !
 ! R15   R(7,25)                 1.084          estimate D2E/DX2                !
 ! R16   R(8,9)                  1.3611         estimate D2E/DX2                !
 ! R17   R(9,10)                 1.4508         estimate D2E/DX2                !
 ! R18   R(10,22)                1.1            estimate D2E/DX2                !
 ! R19   R(10,23)                1.1            estimate D2E/DX2                !
 ! R20   R(10,24)                1.1005         estimate D2E/DX2                !
 ! R21   R(11,12)                1.5377         estimate D2E/DX2                !
 ! R22   R(11,20)                1.1004         estimate D2E/DX2                !
 ! R23   R(11,21)                1.0998         estimate D2E/DX2                !
 ! R24   R(12,13)                1.5089         estimate D2E/DX2                !
 ! R25   R(12,16)                1.5046         estimate D2E/DX2                !
 ! R26   R(12,19)                1.0999         estimate D2E/DX2                !
 ! R27   R(13,14)                1.197          estimate D2E/DX2                !
 ! R28   R(13,15)                1.3199         estimate D2E/DX2                !
 ! R29   R(16,17)                1.2234         estimate D2E/DX2                !
 ! R30   R(16,18)                1.3424         estimate D2E/DX2                !
 ! A1    A(2,1,28)             109.5317         estimate D2E/DX2                !
 ! A2    A(2,1,29)             109.4648         estimate D2E/DX2                !
 ! A3    A(2,1,30)             109.4854         estimate D2E/DX2                !
 ! A4    A(28,1,29)            109.4483         estimate D2E/DX2                !
 ! A5    A(28,1,30)            109.477          estimate D2E/DX2                !
 ! A6    A(29,1,30)            109.4202         estimate D2E/DX2                !
 ! A7    A(1,2,3)              117.7654         estimate D2E/DX2                !
 ! A8    A(2,3,4)              124.7284         estimate D2E/DX2                !
 ! A9    A(2,3,8)              116.035          estimate D2E/DX2                !
 ! A10   A(4,3,8)              119.2321         estimate D2E/DX2                !
 ! A11   A(3,4,5)              120.256          estimate D2E/DX2                !
 ! A12   A(3,4,27)             119.8533         estimate D2E/DX2                !
 ! A13   A(5,4,27)             119.8907         estimate D2E/DX2                !
 ! A14   A(4,5,6)              120.342          estimate D2E/DX2                !
 ! A15   A(4,5,26)             119.8857         estimate D2E/DX2                !
 ! A16   A(6,5,26)             119.7723         estimate D2E/DX2                !
 ! A17   A(5,6,7)              118.8901         estimate D2E/DX2                !
 ! A18   A(5,6,11)             121.912          estimate D2E/DX2                !
 ! A19   A(7,6,11)             119.0996         estimate D2E/DX2                !
 ! A20   A(6,7,8)              121.4354         estimate D2E/DX2                !
 ! A21   A(6,7,25)             119.2788         estimate D2E/DX2                !
 ! A22   A(8,7,25)             119.2858         estimate D2E/DX2                !
 ! A23   A(3,8,7)              119.8213         estimate D2E/DX2                !
 ! A24   A(3,8,9)              116.0305         estimate D2E/DX2                !
 ! A25   A(7,8,9)              124.1479         estimate D2E/DX2                !
 ! A26   A(8,9,10)             117.6222         estimate D2E/DX2                !
 ! A27   A(9,10,22)            109.474          estimate D2E/DX2                !
 ! A28   A(9,10,23)            109.4902         estimate D2E/DX2                !
 ! A29   A(9,10,24)            109.4712         estimate D2E/DX2                !
 ! A30   A(22,10,23)           109.4684         estimate D2E/DX2                !
 ! A31   A(22,10,24)           109.476          estimate D2E/DX2                !
 ! A32   A(23,10,24)           109.4475         estimate D2E/DX2                !
 ! A33   A(6,11,12)            112.9824         estimate D2E/DX2                !
 ! A34   A(6,11,20)            108.6535         estimate D2E/DX2                !
 ! A35   A(6,11,21)            108.6076         estimate D2E/DX2                !
 ! A36   A(12,11,20)           108.5383         estimate D2E/DX2                !
 ! A37   A(12,11,21)           108.5507         estimate D2E/DX2                !
 ! A38   A(20,11,21)           109.4666         estimate D2E/DX2                !
 ! A39   A(11,12,13)           110.6448         estimate D2E/DX2                !
 ! A40   A(11,12,16)           111.5579         estimate D2E/DX2                !
 ! A41   A(11,12,19)           108.1999         estimate D2E/DX2                !
 ! A42   A(13,12,16)           109.1763         estimate D2E/DX2                !
 ! A43   A(13,12,19)           108.6718         estimate D2E/DX2                !
 ! A44   A(16,12,19)           108.5177         estimate D2E/DX2                !
 ! A45   A(12,13,14)           121.678          estimate D2E/DX2                !
 ! A46   A(12,13,15)           114.7175         estimate D2E/DX2                !
 ! A47   A(14,13,15)           123.5924         estimate D2E/DX2                !
 ! A48   A(12,16,17)           120.9298         estimate D2E/DX2                !
 ! A49   A(12,16,18)           114.3422         estimate D2E/DX2                !
 ! A50   A(17,16,18)           124.702          estimate D2E/DX2                !
 ! D1    D(28,1,2,3)           -59.9917         estimate D2E/DX2                !
 ! D2    D(29,1,2,3)            60.0132         estimate D2E/DX2                !
 ! D3    D(30,1,2,3)           179.9555         estimate D2E/DX2                !
 ! D4    D(1,2,3,4)            -58.0363         estimate D2E/DX2                !
 ! D5    D(1,2,3,8)            122.7419         estimate D2E/DX2                !
 ! D6    D(2,3,4,5)           -179.2169         estimate D2E/DX2                !
 ! D7    D(2,3,4,27)             0.8669         estimate D2E/DX2                !
 ! D8    D(8,3,4,5)             -0.0181         estimate D2E/DX2                !
 ! D9    D(8,3,4,27)          -179.9343         estimate D2E/DX2                !
 ! D10   D(2,3,8,7)            178.9594         estimate D2E/DX2                !
 ! D11   D(2,3,8,9)             -0.8568         estimate D2E/DX2                !
 ! D12   D(4,3,8,7)             -0.3077         estimate D2E/DX2                !
 ! D13   D(4,3,8,9)            179.8761         estimate D2E/DX2                !
 ! D14   D(3,4,5,6)             -0.5945         estimate D2E/DX2                !
 ! D15   D(3,4,5,26)           179.4723         estimate D2E/DX2                !
 ! D16   D(27,4,5,6)           179.3216         estimate D2E/DX2                !
 ! D17   D(27,4,5,26)           -0.6116         estimate D2E/DX2                !
 ! D18   D(4,5,6,7)              1.5094         estimate D2E/DX2                !
 ! D19   D(4,5,6,11)           177.8711         estimate D2E/DX2                !
 ! D20   D(26,5,6,7)          -178.5574         estimate D2E/DX2                !
 ! D21   D(26,5,6,11)           -2.1957         estimate D2E/DX2                !
 ! D22   D(5,6,7,8)             -1.8602         estimate D2E/DX2                !
 ! D23   D(5,6,7,25)           178.1575         estimate D2E/DX2                !
 ! D24   D(11,6,7,8)          -178.3257         estimate D2E/DX2                !
 ! D25   D(11,6,7,25)            1.6919         estimate D2E/DX2                !
 ! D26   D(5,6,11,12)         -103.2781         estimate D2E/DX2                !
 ! D27   D(5,6,11,20)          136.2132         estimate D2E/DX2                !
 ! D28   D(5,6,11,21)           17.2144         estimate D2E/DX2                !
 ! D29   D(7,6,11,12)           73.0762         estimate D2E/DX2                !
 ! D30   D(7,6,11,20)          -47.4325         estimate D2E/DX2                !
 ! D31   D(7,6,11,21)         -166.4313         estimate D2E/DX2                !
 ! D32   D(6,7,8,3)              1.2665         estimate D2E/DX2                !
 ! D33   D(6,7,8,9)           -178.9331         estimate D2E/DX2                !
 ! D34   D(25,7,8,3)          -178.7511         estimate D2E/DX2                !
 ! D35   D(25,7,8,9)             1.0493         estimate D2E/DX2                !
 ! D36   D(3,8,9,10)          -158.1892         estimate D2E/DX2                !
 ! D37   D(7,8,9,10)            22.0035         estimate D2E/DX2                !
 ! D38   D(8,9,10,22)          -59.9898         estimate D2E/DX2                !
 ! D39   D(8,9,10,23)           60.0201         estimate D2E/DX2                !
 ! D40   D(8,9,10,24)         -179.9973         estimate D2E/DX2                !
 ! D41   D(6,11,12,13)          66.4839         estimate D2E/DX2                !
 ! D42   D(6,11,12,16)        -171.7623         estimate D2E/DX2                !
 ! D43   D(6,11,12,19)         -52.4635         estimate D2E/DX2                !
 ! D44   D(20,11,12,13)       -172.9418         estimate D2E/DX2                !
 ! D45   D(20,11,12,16)        -51.1879         estimate D2E/DX2                !
 ! D46   D(20,11,12,19)         68.1108         estimate D2E/DX2                !
 ! D47   D(21,11,12,13)        -54.0411         estimate D2E/DX2                !
 ! D48   D(21,11,12,16)         67.7127         estimate D2E/DX2                !
 ! D49   D(21,11,12,19)       -172.9885         estimate D2E/DX2                !
 ! D50   D(11,12,13,14)         36.8243         estimate D2E/DX2                !
 ! D51   D(11,12,13,15)       -144.3989         estimate D2E/DX2                !
 ! D52   D(16,12,13,14)        -86.3202         estimate D2E/DX2                !
 ! D53   D(16,12,13,15)         92.4566         estimate D2E/DX2                !
 ! D54   D(19,12,13,14)        155.4856         estimate D2E/DX2                !
 ! D55   D(19,12,13,15)        -25.7376         estimate D2E/DX2                !
 ! D56   D(11,12,16,17)       -110.1288         estimate D2E/DX2                !
 ! D57   D(11,12,16,18)         68.1006         estimate D2E/DX2                !
 ! D58   D(13,12,16,17)         12.4704         estimate D2E/DX2                !
 ! D59   D(13,12,16,18)       -169.3001         estimate D2E/DX2                !
 ! D60   D(19,12,16,17)        130.7611         estimate D2E/DX2                !
 ! D61   D(19,12,16,18)        -51.0094         estimate D2E/DX2                !
 --------------------------------------------------------------------------------
 Trust Radius=3.00D-01 FncErr=1.00D-07 GrdErr=1.00D-07
 Number of steps in this run=    151 maximum allowed number of steps=    180.
 GradGradGradGradGradGradGradGradGradGradGradGradGradGradGradGradGradGrad

                          Input orientation:                          
 ---------------------------------------------------------------------
 Center     Atomic      Atomic             Coordinates (Angstroms)
 Number     Number       Type             X           Y           Z
 ---------------------------------------------------------------------
      1          6           0        1.438000    1.492000    9.270000
      2          8           0        2.162000    0.319000    9.621000
      3          6           0        2.901000   -0.291000    8.643000
      4          6           0        2.388000   -0.765000    7.445000
      5          6           0        3.230000   -1.391000    6.514000
      6          6           0        4.588000   -1.531000    6.778000
      7          6           0        5.087000   -1.070000    7.989000
      8          6           0        4.273000   -0.446000    8.912000
      9          8           0        4.707000    0.045000   10.105000
     10          6           0        6.119000    0.353000   10.232000
     11          6           0        5.507000   -2.232000    5.834000
     12          6           0        5.878000   -3.650000    6.299000
     13          6           0        4.667000   -4.550000    6.280000
     14          8           0        3.831000   -4.461000    5.428000
     15          8           0        4.627000   -5.442000    7.252000
     16          6           0        6.954000   -4.251000    5.436000
     17          8           0        6.707000   -5.179000    4.678000
     18          8           0        8.153000   -3.659000    5.554000
     19          1           0        6.253000   -3.586000    7.331000
     20          1           0        6.431000   -1.642000    5.739000
     21          1           0        5.015000   -2.303000    4.853000
     22          1           0        6.710000   -0.559000   10.062000
     23          1           0        6.397000    1.114000    9.488000
     24          1           0        6.321000    0.738000   11.243000
     25          1           0        6.139000   -1.203000    8.214000
     26          1           0        2.821000   -1.767000    5.583000
     27          1           0        1.333000   -0.650000    7.227000
     28          1           0        2.137000    2.263000    8.915000
     29          1           0        0.719000    1.254000    8.472000
     30          1           0        0.896000    1.866000   10.151000
 ---------------------------------------------------------------------
                    Distance matrix (angstroms):
                    1          2          3          4          5
     1  C    0.000000
     2  O    1.422430   0.000000
     3  C    2.390102   1.369199   0.000000
     4  C    3.054042   2.441538   1.386740   0.000000
     5  C    4.372469   3.703805   2.418860   1.402712   0.000000
     6  C    5.027036   4.170207   2.803889   2.423148   1.390489
     7  C    4.638966   3.626068   2.411048   2.770119   2.393139
     8  C    3.452714   2.354618   1.406688   2.409787   2.780518
     9  O    3.671157   2.605064   2.347760   3.620699   4.139916
    10  C    4.912690   4.004039   3.646256   4.789327   5.021094
    11  C    6.498541   5.660212   4.295253   3.804678   2.520796
    12  C    7.414891   6.371601   5.063570   4.670829   3.487293
    13  C    7.474778   6.414395   5.180889   4.569167   3.478363
    14  O    7.478344   6.573828   5.346964   4.450950   3.311419
    15  O    7.894454   6.699068   5.607741   5.188902   4.348201
    16  C    8.837865   7.833415   6.511011   6.085773   4.817661
    17  O    9.661836   8.678610   7.355230   6.767085   5.459796
    18  O    9.242980   8.261783   6.961957   6.722079   5.504666
    19  H    7.261545   6.101590   4.879987   4.786362   3.824140
    20  H    6.871679   6.094244   4.766478   4.474976   3.303033
    21  H    6.834240   6.143966   4.783434   3.998129   2.603246
    22  H    5.712079   4.652920   4.073557   5.056759   5.038941
    23  H    4.978161   4.311025   3.861355   4.876123   5.014937
    24  H    5.320238   4.483718   4.417606   5.670300   6.037414
    25  H    5.520649   4.484714   3.391228   3.853986   3.374556
    26  H    5.111530   4.592507   3.398320   2.158364   1.084167
    27  H    2.961931   2.712460   2.143026   1.083409   2.157790
    28  H    1.099576   2.068380   2.679663   3.375305   4.506791
    29  H    1.100186   2.068012   2.679065   2.813654   4.139434
    30  H    1.099910   2.068058   3.308585   4.058406   5.411411
                    6          7          8          9         10
     6  C    0.000000
     7  C    1.388540   0.000000
     8  C    2.414623   1.379819   0.000000
     9  O    3.683323   2.421793   1.361134   0.000000
    10  C    4.221793   2.849737   2.405934   1.450771   0.000000
    11  C    1.492346   2.484083   3.766515   4.905728   5.138013
    12  C    2.526599   3.184051   4.435021   5.432302   5.616990
    13  C    3.060818   3.899677   4.891367   5.978817   6.462663
    14  O    3.313676   4.431155   5.334215   6.553300   7.175511
    15  O    3.939812   4.457483   5.276451   6.184915   6.684945
    16  C    3.846728   4.485784   5.809334   6.730838   6.700422
    17  O    4.712543   5.520055   6.800912   7.793748   7.861023
    18  O    4.328485   4.693879   6.054249   6.804861   6.489760
    19  H    2.702047   2.850048   4.034794   4.823832   4.893820
    20  H    2.118606   2.682540   4.019367   4.987996   4.925893
    21  H    2.117531   3.370455   4.524875   5.761204   6.099737
    22  H    4.028936   2.681898   2.697080   2.092528   1.099966
    23  H    4.196738   2.955158   2.697546   2.092737   1.099973
    24  H    5.299800   3.921752   3.321102   2.092914   1.100523
    25  H    2.138991   1.083982   2.131246   2.680300   2.548305
    26  H    2.146162   3.377780   3.864659   5.223871   6.081480
    27  H    3.401880   3.853513   3.394767   4.488851   5.739497
    28  H    4.996860   4.546302   3.449810   3.597294   4.608570
    29  H    5.059152   4.971286   3.964154   4.475770   5.750600
    30  H    6.045461   5.555072   4.276049   4.223965   5.438332
                   11         12         13         14         15
    11  C    0.000000
    12  C    1.537722   0.000000
    13  C    2.505522   1.508934   0.000000
    14  O    2.818200   2.367820   1.196963   0.000000
    15  O    3.617903   2.384213   1.319867   2.218773   0.000000
    16  C    2.515666   1.504575   2.456035   3.130063   3.182965
    17  O    3.385431   2.377546   2.669016   3.057679   3.319796
    18  O    3.019279   2.393895   3.670579   4.397586   4.300578
    19  H    2.151939   1.099884   2.132907   3.202049   2.468776
    20  H    1.100409   2.156727   3.443957   3.847529   4.470300
    21  H    1.099757   2.156408   2.684482   2.527735   3.969769
    22  H    4.703416   4.940311   5.865616   6.707324   6.006553
    23  H    5.033839   5.756282   6.735359   7.358572   7.149387
    24  H    6.224209   6.625249   7.438416   8.188036   7.549180
    25  H    2.668832   3.118197   4.136369   4.868596   4.602250
    26  H    2.737485   3.661092   3.411541   2.881278   4.421857
    27  H    4.676051   5.524329   5.217506   4.898992   5.815009
    28  H    6.407377   7.470081   7.730530   7.761506   8.266359
    29  H    6.483532   7.442206   7.353773   7.184129   7.848393
    30  H    7.529370   8.371648   8.388691   8.423294   8.702380
                   16         17         18         19         20
    16  C    0.000000
    17  O    1.223420   0.000000
    18  O    1.342382   2.273476   0.000000
    19  H    2.127123   3.127647   2.602510   0.000000
    20  H    2.678100   3.703008   2.658533   2.518985   0.000000
    21  H    2.809682   3.341387   3.489582   3.052739   1.796378
    22  H    5.923705   7.094495   5.658119   4.102431   4.465317
    23  H    6.746271   7.926793   6.429729   5.173334   4.653138
    24  H    7.681931   8.846418   7.419876   5.831410   5.997542
    25  H    4.203786   5.351121   4.142913   2.543890   2.530536
    26  H    4.824267   5.249930   5.657802   4.259447   3.615531
    27  H    6.911622   7.475902   7.639726   5.730385   5.402575
    28  H    8.816979   9.706721   9.086180   7.325388   6.616225
    29  H    8.854239   9.572569   9.376388   7.439935   6.962977
    30  H    9.815716  10.646759  10.213818   8.147033   7.899876
                   21         22         23         24         25
    21  H    0.000000
    22  H    5.748760   0.000000
    23  H    5.921912   1.796211   0.000000
    24  H    7.196209   1.796745   1.796435   0.000000
    25  H    3.710754   2.038598   2.656714   3.602145   0.000000
    26  H    2.373569   6.053514   6.028015   7.110599   4.271929
    27  H    4.682458   6.079279   5.819615   6.552476   4.937369
    28  H    6.755078   5.494690   4.449284   5.025044   5.340464
    29  H    6.648686   6.458107   5.769882   6.271132   5.956493
    30  H    7.900350   6.300091   5.591607   5.647608   6.376502
                   26         27         28         29         30
    26  H    0.000000
    27  H    2.482855   0.000000
    28  H    5.273612   3.461406   0.000000
    29  H    4.678800   2.356319   1.795844   0.000000
    30  H    6.145807   3.882139   1.795936   1.795805   0.000000
 Stoichiometry    C12H12O6(2-)
 Framework group  C1[X(C12H12O6)]
 Deg. of freedom    84
 Full point group                 C1      NOp   1
 Largest Abelian subgroup         C1      NOp   1
 Largest concise Abelian subgroup C1      NOp   1
                         Standard orientation:                         
 ---------------------------------------------------------------------
 Center     Atomic      Atomic             Coordinates (Angstroms)
 Number     Number       Type             X           Y           Z
 ---------------------------------------------------------------------
      1          6           0       -4.911202   -1.199316   -0.437533
      2          8           0       -3.942478   -0.732334    0.493493
      3          6           0       -2.649078   -0.610454    0.061094
      4          6           0       -1.890156   -1.646350   -0.462363
      5          6           0       -0.565004   -1.419473   -0.862490
      6          6           0       -0.004379   -0.152029   -0.749590
      7          6           0       -0.767290    0.872992   -0.206137
      8          6           0       -2.074235    0.667358    0.185669
      9          8           0       -2.877699    1.635798    0.704568
     10          6           0       -2.538530    3.016717    0.416882
     11          6           0        1.415556    0.118417   -1.120723
     12          6           0        2.340428    0.251528    0.100540
     13          6           0        2.454527   -1.065772    0.827578
     14          8           0        2.480777   -2.108034    0.239598
     15          8           0        2.546817   -0.965403    2.140383
     16          6           0        3.714942    0.718298   -0.295167
     17          8           0        4.677770   -0.033551   -0.228527
     18          8           0        3.761657    1.981687   -0.746448
     19          1           0        1.902595    0.994020    0.783734
     20          1           0        1.456796    1.056364   -1.694705
     21          1           0        1.778753   -0.710182   -1.746004
     22          1           0       -1.533013    3.235911    0.805230
     23          1           0       -2.555019    3.179733   -0.670820
     24          1           0       -3.270937    3.682290    0.898280
     25          1           0       -0.326572    1.856193   -0.087384
     26          1           0        0.025634   -2.235665   -1.262982
     27          1           0       -2.323155   -2.634276   -0.563792
     28          1           0       -4.958330   -0.512276   -1.294751
     29          1           0       -4.628864   -2.203297   -0.787842
     30          1           0       -5.896105   -1.245618    0.049933
 ---------------------------------------------------------------------
 Rotational constants (GHZ):      0.7909112      0.2184172      0.1913907
 Standard basis: 6-31G(d) (6D, 7F)
 There are   294 symmetry adapted basis functions of A   symmetry.
 Integral buffers will be    131072 words long.
 Raffenetti 1 integral format.
 Two-electron integral symmetry is turned on.
   294 basis functions,   552 primitive gaussians,   294 cartesian basis functions
    67 alpha electrons       67 beta electrons
       nuclear repulsion energy      1300.7480494494 Hartrees.
 NAtoms=   30 NActive=   30 NUniq=   30 SFac= 1.00D+00 NAtFMM=   60 NAOKFM=F Big=F
 One-electron integrals computed using PRISM.
 NBasis=   294 RedAO= T  NBF=   294
 NBsUse=   294 1.00D-06 NBFU=   294
 Harris functional with IExCor=  205 diagonalized for initial guess.
 ExpMin= 1.61D-01 ExpMax= 5.48D+03 ExpMxC= 8.25D+02 IAcc=1 IRadAn=         1 AccDes= 0.00D+00
 HarFok:  IExCor=  205 AccDes= 0.00D+00 IRadAn=         1 IDoV= 1
 ScaDFX=  1.000000  1.000000  1.000000  1.000000
 FoFCou: FMM=F IPFlag=           0 FMFlag=      100000 FMFlg1=           0
         NFxFlg=           0 DoJE=T BraDBF=F KetDBF=T FulRan=T
         Omega=  0.000000  0.000000  1.000000  0.000000  0.000000 ICntrl=     500 IOpCl=  0
         NMat0=    1 NMatS0=    1 NMatT0=    0 NMatD0=    1 NMtDS0=    0 NMtDT0=    0
         I1Cent=           4 NGrid=           0.
 Petite list used in FoFCou.
 Initial guess orbital symmetries:
       Occupied  (A) (A) (A) (A) (A) (A) (A) (A) (A) (A) (A) (A)
                 (A) (A) (A) (A) (A) (A) (A) (A) (A) (A) (A) (A)
                 (A) (A) (A) (A) (A) (A) (A) (A) (A) (A) (A) (A)
                 (A) (A) (A) (A) (A) (A) (A) (A) (A) (A) (A) (A)
                 (A) (A) (A) (A) (A) (A) (A) (A) (A) (A) (A) (A)
                 (A) (A) (A) (A) (A) (A) (A)
       Virtual   (A) (A) (A) (A) (A) (A) (A) (A) (A) (A) (A) (A)
                 (A) (A) (A) (A) (A) (A) (A) (A) (A) (A) (A) (A)
                 (A) (A) (A) (A) (A) (A) (A) (A) (A) (A) (A) (A)
                 (A) (A) (A) (A) (A) (A) (A) (A) (A) (A) (A) (A)
                 (A) (A) (A) (A) (A) (A) (A) (A) (A) (A) (A) (A)
                 (A) (A) (A) (A) (A) (A) (A) (A) (A) (A) (A) (A)
                 (A) (A) (A) (A) (A) (A) (A) (A) (A) (A) (A) (A)
                 (A) (A) (A) (A) (A) (A) (A) (A) (A) (A) (A) (A)
                 (A) (A) (A) (A) (A) (A) (A) (A) (A) (A) (A) (A)
                 (A) (A) (A) (A) (A) (A) (A) (A) (A) (A) (A) (A)
                 (A) (A) (A) (A) (A) (A) (A) (A) (A) (A) (A) (A)
                 (A) (A) (A) (A) (A) (A) (A) (A) (A) (A) (A) (A)
                 (A) (A) (A) (A) (A) (A) (A) (A) (A) (A) (A) (A)
                 (A) (A) (A) (A) (A) (A) (A) (A) (A) (A) (A) (A)
                 (A) (A) (A) (A) (A) (A) (A) (A) (A) (A) (A) (A)
                 (A) (A) (A) (A) (A) (A) (A) (A) (A) (A) (A) (A)
                 (A) (A) (A) (A) (A) (A) (A) (A) (A) (A) (A) (A)
                 (A) (A) (A) (A) (A) (A) (A) (A) (A) (A) (A) (A)
                 (A) (A) (A) (A) (A) (A) (A) (A) (A) (A) (A)
 The electronic state of the initial guess is 1-A.
 Requested convergence on RMS density matrix=1.00D-08 within 128 cycles.
 Requested convergence on MAX density matrix=1.00D-06.
 Requested convergence on             energy=1.00D-06.
 No special actions if energy rises.
 Integral accuracy reduced to 1.0D-05 until final iterations.
 Initial convergence to 1.0D-05 achieved.  Increase integral accuracy.
 SCF Done:  E(RHF) =  -910.450174838     A.U. after   16 cycles
             Convg  =    0.4508D-08             -V/T =  2.0018

 **********************************************************************

            Population analysis using the SCF density.

 **********************************************************************

 Orbital symmetries:
 BldTbl:  Degeneracy threshold= 1.00D-02
       Occupied  (A) (A) (A) (A) (A) (A) (A) (A) (A) (A) (A) (A)
                 (A) (A) (A) (A) (A) (A) (A) (A) (A) (A) (A) (A)
                 (A) (A) (A) (A) (A) (A) (A) (A) (A) (A) (A) (A)
                 (A) (A) (A) (A) (A) (A) (A) (A) (A) (A) (A) (A)
                 (A) (A) (A) (A) (A) (A) (A) (A) (A) (A) (A) (A)
                 (A) (A) (A) (A) (A) (A) (A)
       Virtual   (A) (A) (A) (A) (A) (A) (A) (A) (A) (A) (A) (A)
                 (A) (A) (A) (A) (A) (A) (A) (A) (A) (A) (A) (A)
                 (A) (A) (A) (A) (A) (A) (A) (A) (A) (A) (A) (A)
                 (A) (A) (A) (A) (A) (A) (A) (A) (A) (A) (A) (A)
                 (A) (A) (A) (A) (A) (A) (A) (A) (A) (A) (A) (A)
                 (A) (A) (A) (A) (A) (A) (A) (A) (A) (A) (A) (A)
                 (A) (A) (A) (A) (A) (A) (A) (A) (A) (A) (A) (A)
                 (A) (A) (A) (A) (A) (A) (A) (A) (A) (A) (A) (A)
                 (A) (A) (A) (A) (A) (A) (A) (A) (A) (A) (A) (A)
                 (A) (A) (A) (A) (A) (A) (A) (A) (A) (A) (A) (A)
                 (A) (A) (A) (A) (A) (A) (A) (A) (A) (A) (A) (A)
                 (A) (A) (A) (A) (A) (A) (A) (A) (A) (A) (A) (A)
                 (A) (A) (A) (A) (A) (A) (A) (A) (A) (A) (A) (A)
                 (A) (A) (A) (A) (A) (A) (A) (A) (A) (A) (A) (A)
                 (A) (A) (A) (A) (A) (A) (A) (A) (A) (A) (A) (A)
                 (A) (A) (A) (A) (A) (A) (A) (A) (A) (A) (A) (A)
                 (A) (A) (A) (A) (A) (A) (A) (A) (A) (A) (A) (A)
                 (A) (A) (A) (A) (A) (A) (A) (A) (A) (A) (A) (A)
                 (A) (A) (A) (A) (A) (A) (A) (A) (A) (A) (A)
 The electronic state is 1-A.
 Alpha  occ. eigenvalues --  -20.40433 -20.40073 -20.16650 -20.15749 -20.13671
 Alpha  occ. eigenvalues --  -20.11804 -11.13285 -11.12650 -11.09574 -11.08882
 Alpha  occ. eigenvalues --  -11.03869 -11.01815 -11.01681 -11.01386 -10.99958
 Alpha  occ. eigenvalues --  -10.98137 -10.96198 -10.91135  -1.22836  -1.20377
 Alpha  occ. eigenvalues --   -1.04111  -1.02299  -0.94301  -0.89283  -0.88586
 Alpha  occ. eigenvalues --   -0.84390  -0.81730  -0.78355  -0.76752  -0.72327
 Alpha  occ. eigenvalues --   -0.63461  -0.62155  -0.57265  -0.52432  -0.49610
 Alpha  occ. eigenvalues --   -0.48391  -0.48066  -0.46510  -0.45095  -0.42369
 Alpha  occ. eigenvalues --   -0.41138  -0.40222  -0.39013  -0.36719  -0.35693
 Alpha  occ. eigenvalues --   -0.33435  -0.33329  -0.31680  -0.30894  -0.29679
 Alpha  occ. eigenvalues --   -0.28869  -0.27323  -0.25565  -0.24852  -0.24606
 Alpha  occ. eigenvalues --   -0.22508  -0.21601  -0.18837  -0.17209  -0.12629
 Alpha  occ. eigenvalues --   -0.09673  -0.07088  -0.05875  -0.04471  -0.04057
 Alpha  occ. eigenvalues --   -0.03188  -0.02746
 Alpha virt. eigenvalues --    0.34638   0.36435   0.39397   0.40963   0.42966
 Alpha virt. eigenvalues --    0.44820   0.46012   0.46702   0.47441   0.48582
 Alpha virt. eigenvalues --    0.49484   0.52967   0.54268   0.54469   0.55713
 Alpha virt. eigenvalues --    0.57956   0.59691   0.60567   0.62855   0.64637
 Alpha virt. eigenvalues --    0.67396   0.71148   0.72289   0.73750   0.75238
 Alpha virt. eigenvalues --    0.77373   0.79513   0.80645   0.82041   0.84655
 Alpha virt. eigenvalues --    0.86400   0.87603   0.90027   0.90925   0.91722
 Alpha virt. eigenvalues --    0.92776   0.93583   0.94565   0.95506   0.95781
 Alpha virt. eigenvalues --    0.97723   0.99227   1.00639   1.03292   1.04743
 Alpha virt. eigenvalues --    1.05021   1.06966   1.08175   1.09525   1.11773
 Alpha virt. eigenvalues --    1.11952   1.15044   1.16704   1.17339   1.18110
 Alpha virt. eigenvalues --    1.19152   1.21424   1.22863   1.23631   1.25102
 Alpha virt. eigenvalues --    1.25920   1.26554   1.27095   1.27760   1.28978
 Alpha virt. eigenvalues --    1.30125   1.31185   1.32115   1.32248   1.33305
 Alpha virt. eigenvalues --    1.34135   1.34346   1.36075   1.36531   1.38523
 Alpha virt. eigenvalues --    1.38698   1.40047   1.40760   1.43137   1.45255
 Alpha virt. eigenvalues --    1.45420   1.46449   1.48595   1.48939   1.49729
 Alpha virt. eigenvalues --    1.51179   1.52244   1.53813   1.54839   1.57553
 Alpha virt. eigenvalues --    1.58742   1.59374   1.62889   1.63596   1.66105
 Alpha virt. eigenvalues --    1.66523   1.67243   1.68676   1.69696   1.72536
 Alpha virt. eigenvalues --    1.73369   1.74273   1.74311   1.76525   1.77754
 Alpha virt. eigenvalues --    1.79324   1.80515   1.81719   1.82764   1.85252
 Alpha virt. eigenvalues --    1.88859   1.90795   1.91574   1.93556   1.95433
 Alpha virt. eigenvalues --    1.97303   1.99236   2.00073   2.05005   2.05543
 Alpha virt. eigenvalues --    2.08251   2.12797   2.13458   2.15076   2.17831
 Alpha virt. eigenvalues --    2.19502   2.23907   2.26440   2.28439   2.30716
 Alpha virt. eigenvalues --    2.32475   2.34004   2.36304   2.37312   2.38805
 Alpha virt. eigenvalues --    2.40441   2.41662   2.42782   2.44775   2.45060
 Alpha virt. eigenvalues --    2.46090   2.48356   2.49225   2.50196   2.51454
 Alpha virt. eigenvalues --    2.52422   2.53236   2.54413   2.54871   2.56011
 Alpha virt. eigenvalues --    2.56959   2.57762   2.59501   2.61561   2.62710
 Alpha virt. eigenvalues --    2.63680   2.64365   2.65585   2.66641   2.68051
 Alpha virt. eigenvalues --    2.68550   2.70724   2.71265   2.71682   2.74060
 Alpha virt. eigenvalues --    2.75662   2.77126   2.78274   2.81163   2.82300
 Alpha virt. eigenvalues --    2.84378   2.85422   2.87567   2.89977   2.91615
 Alpha virt. eigenvalues --    2.95032   2.96966   2.99159   3.03338   3.07454
 Alpha virt. eigenvalues --    3.09227   3.12974   3.15499   3.17507   3.19981
 Alpha virt. eigenvalues --    3.21599   3.24092   3.24953   3.29192   3.31861
 Alpha virt. eigenvalues --    3.35369   3.36373   3.37008   3.42872   3.44594
 Alpha virt. eigenvalues --    3.48319   3.51107   3.51561   3.55064   3.56269
 Alpha virt. eigenvalues --    3.62755   3.63177   3.66759   3.72864   3.76319
 Alpha virt. eigenvalues --    3.84838   3.86029   3.91290   4.04845   4.54957
 Alpha virt. eigenvalues --    4.67074   4.69099   4.73965   4.75956   4.80915
 Alpha virt. eigenvalues --    4.82489   4.86374   4.92527   4.98668   5.00489
 Alpha virt. eigenvalues --    5.08382   5.12403   5.20840   5.24888   5.27157
 Alpha virt. eigenvalues --    5.46993   5.62428
          Condensed to atoms (all electrons):
              1          2          3          4          5          6
     1  C    4.791167   0.227671  -0.042622  -0.003496   0.000009   0.000028
     2  O    0.227671   8.461578   0.204762  -0.052745   0.003016  -0.000173
     3  C   -0.042622   0.204762   4.587872   0.564452  -0.045882  -0.024334
     4  C   -0.003496  -0.052745   0.564452   5.041998   0.490265  -0.045771
     5  C    0.000009   0.003016  -0.045882   0.490265   4.954134   0.583233
     6  C    0.000028  -0.000173  -0.024334  -0.045771   0.583233   4.829687
     7  C   -0.000127   0.003941  -0.055943  -0.036034  -0.064986   0.515107
     8  C   -0.000228  -0.054860   0.570842  -0.061242  -0.026376  -0.029285
     9  O    0.000741  -0.005338  -0.054197   0.002740   0.000074   0.003144
    10  C    0.000023  -0.000035   0.002702  -0.000076   0.000016  -0.000242
    11  C    0.000000   0.000000   0.000273   0.003636  -0.035707   0.312164
    12  C    0.000000   0.000000   0.000039  -0.000244  -0.004012  -0.054969
    13  C    0.000000   0.000000   0.000001  -0.000043   0.001590  -0.005711
    14  O    0.000000   0.000000   0.000005   0.000048   0.002586  -0.004491
    15  O    0.000000   0.000000   0.000000   0.000004  -0.000134   0.000372
    16  C    0.000000   0.000000   0.000000   0.000000  -0.000068   0.003347
    17  O    0.000000   0.000000   0.000000   0.000000   0.000000  -0.000085
    18  O    0.000000   0.000000   0.000000   0.000000  -0.000007   0.000142
    19  H    0.000000   0.000000   0.000000   0.000001   0.000210  -0.005529
    20  H    0.000000   0.000000   0.000011  -0.000130   0.003450  -0.049853
    21  H    0.000000   0.000000  -0.000013   0.000272  -0.006686  -0.044852
    22  H    0.000001  -0.000003  -0.000540  -0.000004   0.000001  -0.000288
    23  H   -0.000011  -0.000027   0.000358  -0.000021  -0.000016  -0.000198
    24  H   -0.000001   0.000000   0.000102   0.000003   0.000000   0.000015
    25  H    0.000001  -0.000042   0.001162   0.000172   0.003600  -0.014343
    26  H   -0.000002  -0.000031   0.001478  -0.036704   0.372536  -0.015576
    27  H   -0.000255  -0.001156  -0.038229   0.373363  -0.023529   0.002089
    28  H    0.381826  -0.042430   0.001524   0.001698  -0.000031  -0.000014
    29  H    0.388747  -0.041400  -0.002393   0.000800  -0.000348   0.000001
    30  H    0.390533  -0.032088   0.004107  -0.000069   0.000004   0.000000
              7          8          9         10         11         12
     1  C   -0.000127  -0.000228   0.000741   0.000023   0.000000   0.000000
     2  O    0.003941  -0.054860  -0.005338  -0.000035   0.000000   0.000000
     3  C   -0.055943   0.570842  -0.054197   0.002702   0.000273   0.000039
     4  C   -0.036034  -0.061242   0.002740  -0.000076   0.003636  -0.000244
     5  C   -0.064986  -0.026376   0.000074   0.000016  -0.035707  -0.004012
     6  C    0.515107  -0.029285   0.003144  -0.000242   0.312164  -0.054969
     7  C    5.152835   0.518188  -0.056611  -0.007403  -0.057534  -0.002723
     8  C    0.518188   4.538576   0.230579  -0.043153   0.001488   0.000002
     9  O   -0.056611   0.230579   8.450096   0.217901  -0.000041   0.000001
    10  C   -0.007403  -0.043153   0.217901   4.829248  -0.000012   0.000000
    11  C   -0.057534   0.001488  -0.000041  -0.000012   5.219296   0.244319
    12  C   -0.002723   0.000002   0.000001   0.000000   0.244319   5.761974
    13  C   -0.000008  -0.000038   0.000000   0.000000  -0.042759   0.276495
    14  O   -0.000077  -0.000001   0.000000   0.000000   0.011110  -0.122210
    15  O   -0.000078  -0.000003   0.000000   0.000000   0.003601  -0.118220
    16  C   -0.000031  -0.000003   0.000000   0.000000  -0.022346   0.276881
    17  O    0.000000   0.000000   0.000000   0.000000  -0.000818  -0.114906
    18  O   -0.000029  -0.000001   0.000000   0.000000  -0.003476  -0.121334
    19  H    0.002246   0.000149   0.000000  -0.000003  -0.048136   0.370813
    20  H   -0.008813  -0.000004   0.000000  -0.000009   0.381442  -0.040452
    21  H    0.005280  -0.000009   0.000000   0.000000   0.383846  -0.031477
    22  H   -0.001057  -0.002502  -0.036242   0.394381   0.000015  -0.000010
    23  H    0.002289   0.001612  -0.039731   0.381748  -0.000004   0.000000
    24  H    0.000430   0.002187  -0.028756   0.391334   0.000000   0.000000
    25  H    0.374485  -0.041570  -0.003347  -0.000875  -0.003560   0.001458
    26  H    0.004167   0.000105   0.000001   0.000000  -0.003298  -0.000241
    27  H    0.000131   0.002891  -0.000047   0.000002  -0.000099   0.000003
    28  H   -0.000099   0.002410  -0.000020  -0.000014   0.000000   0.000000
    29  H    0.000020  -0.000637   0.000006   0.000000   0.000000   0.000000
    30  H    0.000002   0.000002  -0.000013  -0.000001   0.000000   0.000000
             13         14         15         16         17         18
     1  C    0.000000   0.000000   0.000000   0.000000   0.000000   0.000000
     2  O    0.000000   0.000000   0.000000   0.000000   0.000000   0.000000
     3  C    0.000001   0.000005   0.000000   0.000000   0.000000   0.000000
     4  C   -0.000043   0.000048   0.000004   0.000000   0.000000   0.000000
     5  C    0.001590   0.002586  -0.000134  -0.000068   0.000000  -0.000007
     6  C   -0.005711  -0.004491   0.000372   0.003347  -0.000085   0.000142
     7  C   -0.000008  -0.000077  -0.000078  -0.000031   0.000000  -0.000029
     8  C   -0.000038  -0.000001  -0.000003  -0.000003   0.000000  -0.000001
     9  O    0.000000   0.000000   0.000000   0.000000   0.000000   0.000000
    10  C    0.000000   0.000000   0.000000   0.000000   0.000000   0.000000
    11  C   -0.042759   0.011110   0.003601  -0.022346  -0.000818  -0.003476
    12  C    0.276495  -0.122210  -0.118220   0.276881  -0.114906  -0.121334
    13  C    4.034397   0.501728   0.494024  -0.026239   0.017411   0.002382
    14  O    0.501728   8.420936  -0.100386  -0.000214  -0.002422  -0.000026
    15  O    0.494024  -0.100386   8.589643   0.003594  -0.001851  -0.000003
    16  C   -0.026239  -0.000214   0.003594   4.008368   0.555786   0.456963
    17  O    0.017411  -0.002422  -0.001851   0.555786   8.335010  -0.085701
    18  O    0.002382  -0.000026  -0.000003   0.456963  -0.085701   8.635749
    19  H   -0.033273   0.003129   0.009489  -0.020950   0.001546   0.002656
    20  H    0.004130   0.000161  -0.000093  -0.002050   0.000224   0.013720
    21  H   -0.002738   0.009585   0.000210  -0.001090   0.001118   0.000270
    22  H    0.000000   0.000000   0.000000   0.000000   0.000000   0.000000
    23  H    0.000000   0.000000   0.000000   0.000000   0.000000   0.000000
    24  H    0.000000   0.000000   0.000000   0.000000   0.000000   0.000000
    25  H    0.000071   0.000002  -0.000015  -0.000035   0.000001   0.000115
    26  H    0.000184   0.005846   0.000013   0.000001   0.000000   0.000000
    27  H   -0.000001  -0.000004   0.000000   0.000000   0.000000   0.000000
    28  H    0.000000   0.000000   0.000000   0.000000   0.000000   0.000000
    29  H    0.000000   0.000000   0.000000   0.000000   0.000000   0.000000
    30  H    0.000000   0.000000   0.000000   0.000000   0.000000   0.000000
             19         20         21         22         23         24
     1  C    0.000000   0.000000   0.000000   0.000001  -0.000011  -0.000001
     2  O    0.000000   0.000000   0.000000  -0.000003  -0.000027   0.000000
     3  C    0.000000   0.000011  -0.000013  -0.000540   0.000358   0.000102
     4  C    0.000001  -0.000130   0.000272  -0.000004  -0.000021   0.000003
     5  C    0.000210   0.003450  -0.006686   0.000001  -0.000016   0.000000
     6  C   -0.005529  -0.049853  -0.044852  -0.000288  -0.000198   0.000015
     7  C    0.002246  -0.008813   0.005280  -0.001057   0.002289   0.000430
     8  C    0.000149  -0.000004  -0.000009  -0.002502   0.001612   0.002187
     9  O    0.000000   0.000000   0.000000  -0.036242  -0.039731  -0.028756
    10  C   -0.000003  -0.000009   0.000000   0.394381   0.381748   0.391334
    11  C   -0.048136   0.381442   0.383846   0.000015  -0.000004   0.000000
    12  C    0.370813  -0.040452  -0.031477  -0.000010   0.000000   0.000000
    13  C   -0.033273   0.004130  -0.002738   0.000000   0.000000   0.000000
    14  O    0.003129   0.000161   0.009585   0.000000   0.000000   0.000000
    15  O    0.009489  -0.000093   0.000210   0.000000   0.000000   0.000000
    16  C   -0.020950  -0.002050  -0.001090   0.000000   0.000000   0.000000
    17  O    0.001546   0.000224   0.001118   0.000000   0.000000   0.000000
    18  O    0.002656   0.013720   0.000270   0.000000   0.000000   0.000000
    19  H    0.565299  -0.001409   0.004595   0.000013   0.000000   0.000000
    20  H   -0.001409   0.571182  -0.025846  -0.000006   0.000005   0.000000
    21  H    0.004595  -0.025846   0.534393   0.000000   0.000000   0.000000
    22  H    0.000013  -0.000006   0.000000   0.540652  -0.040043  -0.032037
    23  H    0.000000   0.000005   0.000000  -0.040043   0.579726  -0.032811
    24  H    0.000000   0.000000   0.000000  -0.032037  -0.032811   0.550810
    25  H    0.001183   0.002367   0.000065  -0.002224   0.000513   0.000165
    26  H   -0.000011   0.000068   0.002951   0.000000   0.000000   0.000000
    27  H    0.000000   0.000002  -0.000004   0.000000   0.000000   0.000000
    28  H    0.000000   0.000000   0.000000   0.000000   0.000016   0.000000
    29  H    0.000000   0.000000   0.000000   0.000000   0.000000   0.000000
    30  H    0.000000   0.000000   0.000000   0.000000   0.000000   0.000000
             25         26         27         28         29         30
     1  C    0.000001  -0.000002  -0.000255   0.381826   0.388747   0.390533
     2  O   -0.000042  -0.000031  -0.001156  -0.042430  -0.041400  -0.032088
     3  C    0.001162   0.001478  -0.038229   0.001524  -0.002393   0.004107
     4  C    0.000172  -0.036704   0.373363   0.001698   0.000800  -0.000069
     5  C    0.003600   0.372536  -0.023529  -0.000031  -0.000348   0.000004
     6  C   -0.014343  -0.015576   0.002089  -0.000014   0.000001   0.000000
     7  C    0.374485   0.004167   0.000131  -0.000099   0.000020   0.000002
     8  C   -0.041570   0.000105   0.002891   0.002410  -0.000637   0.000002
     9  O   -0.003347   0.000001  -0.000047  -0.000020   0.000006  -0.000013
    10  C   -0.000875   0.000000   0.000002  -0.000014   0.000000  -0.000001
    11  C   -0.003560  -0.003298  -0.000099   0.000000   0.000000   0.000000
    12  C    0.001458  -0.000241   0.000003   0.000000   0.000000   0.000000
    13  C    0.000071   0.000184  -0.000001   0.000000   0.000000   0.000000
    14  O    0.000002   0.005846  -0.000004   0.000000   0.000000   0.000000
    15  O   -0.000015   0.000013   0.000000   0.000000   0.000000   0.000000
    16  C   -0.000035   0.000001   0.000000   0.000000   0.000000   0.000000
    17  O    0.000001   0.000000   0.000000   0.000000   0.000000   0.000000
    18  O    0.000115   0.000000   0.000000   0.000000   0.000000   0.000000
    19  H    0.001183  -0.000011   0.000000   0.000000   0.000000   0.000000
    20  H    0.002367   0.000068   0.000002   0.000000   0.000000   0.000000
    21  H    0.000065   0.002951  -0.000004   0.000000   0.000000   0.000000
    22  H   -0.002224   0.000000   0.000000   0.000000   0.000000   0.000000
    23  H    0.000513   0.000000   0.000000   0.000016   0.000000   0.000000
    24  H    0.000165   0.000000   0.000000   0.000000   0.000000   0.000000
    25  H    0.467373  -0.000112   0.000012   0.000001   0.000000   0.000000
    26  H   -0.000112   0.450059  -0.001640  -0.000001   0.000006   0.000000
    27  H    0.000012  -0.001640   0.521774   0.000339  -0.000676  -0.000025
    28  H    0.000001  -0.000001   0.000339   0.592750  -0.042198  -0.033103
    29  H    0.000000   0.000006  -0.000676  -0.042198   0.598003  -0.035635
    30  H    0.000000   0.000000  -0.000025  -0.033103  -0.035635   0.565954
 Mulliken atomic charges:
              1
     1  C   -0.134006
     2  O   -0.670640
     3  C    0.324461
     4  C   -0.242874
     5  C   -0.206941
     6  C    0.046385
     7  C   -0.287570
     8  C    0.390881
     9  O   -0.680941
    10  C   -0.165531
    11  C   -0.343401
    12  C   -0.321186
    13  C    0.778397
    14  O   -0.725303
    15  O   -0.880166
    16  C    0.768086
    17  O   -0.705313
    18  O   -0.901420
    19  H    0.147984
    20  H    0.151904
    21  H    0.170130
    22  H    0.179893
    23  H    0.146595
    24  H    0.148559
    25  H    0.213377
    26  H    0.220199
    27  H    0.165061
    28  H    0.137346
    29  H    0.135704
    30  H    0.140333
 Sum of Mulliken atomic charges =  -2.00000
 Mulliken charges with hydrogens summed into heavy atoms:
              1
     1  C    0.279377
     2  O   -0.670640
     3  C    0.324461
     4  C   -0.077814
     5  C    0.013258
     6  C    0.046385
     7  C   -0.074194
     8  C    0.390881
     9  O   -0.680941
    10  C    0.309515
    11  C   -0.021367
    12  C   -0.173202
    13  C    0.778397
    14  O   -0.725303
    15  O   -0.880166
    16  C    0.768086
    17  O   -0.705313
    18  O   -0.901420
 Sum of Mulliken charges with hydrogens summed into heavy atoms =  -2.00000
 DipInt: DoE/N= T F RetVal/Mat= T F Init=T NMatP=  1 IDeriv=0 Min/MaxMlt=  0  4
 Entering OneElI...
 OneElI was handed    33330847 working-precision words.
 Multipole integrals L=0 to 4 MinM= 0 MaxM= 0.
 Requested accuracy = 0.1000D-12
 PrsmSu:  NPrtUS=   1 ThrOK=F IAlg=1 NPAlg=1 LenDen=           0.
 Prism:   IPart=     0 DynPar=F LinDyn=F Incr=          36.
 PRISM was handed    32996585 working-precision words and  3686 shell-pairs
 IPart=  0 NShTot=        3686 NBatch=          46 AvBLen=        80.1
 PrSmSu:  NxtVal=             37.
 Electronic moments (au):
       -134.00000000        -10.81713078          1.02350023         -2.25095651
      -4233.14664547      -1061.27911277       -397.89926699         -1.25353753
          0.47512470         11.12477140        637.86843775      -1348.48879540
       -395.00756914       1125.34757905        161.67462697        -33.47948618
       -709.40615625        227.07814338       -135.24378536       1404.47140952
    -234374.19579433     -22260.80671601      -4352.31943744     -21569.94870227
       2098.29735215       7038.39300541      -1360.72265827      -2455.61342219
        922.63710883     -30992.48614288     -10097.48293379      -2630.51407056
       1423.22018745       1300.64986751       1018.91225852
 Electronic spatial extent (au):  <R**2>=           5692.3250
 DipInt: DoE/N= F T RetVal/Mat= T F Init=T NMatP=  1 IDeriv=0 Min/MaxMlt=  0  4
 Nuclear    moments (au):
        132.00000000          0.00000000          0.00000000          0.00000000
       4059.45969481        966.01010104        302.06214391          0.00000000
          0.00000000          0.00000000      -1270.14665595       1375.50360895
        357.86818330      -1277.41382005       -226.58118512          2.61500199
        655.19356120       -209.47844350        139.95777852      -1350.10448524
     214685.87880637      18488.42981253       2756.42944564      21202.07481416
      -1585.10464899      -7278.08114836       1514.57992926       2181.45745118
       -829.12261839      27280.26209560       7043.74520017       1730.49014587
      -1057.10648633      -1248.79959390       -981.28224899
 Total      moments (au):
         -2.00000000        -10.81713078          1.02350023         -2.25095651
       -173.68695066        -95.26901173        -95.83712308         -1.25353753
          0.47512470         11.12477140       -632.27821820         27.01481355
        -37.13938584       -152.06624100        -64.90655815        -30.86448418
        -54.21259504         17.59969989          4.71399316         54.36692428
     -19688.31698796      -3772.37690349      -1595.88999180       -367.87388810
        513.19270316       -239.68814295        153.85727099       -274.15597101
         93.51449045      -3712.22404728      -3053.73773362       -900.02392468
        366.11370112         51.85027361         37.63000953
 Traceless Quadrup. (au):
        -52.08925550         26.32868343         25.76057207         -1.25353753
          0.47512470         11.12477140
 Charge=             -2.0000 electrons
 Dipole moment (field-independent basis, Debye):
    X=            -27.4944    Y=              2.6015    Z=             -5.7214  Tot=             28.2036
 Quadrupole moment (field-independent basis, Debye-Ang):
   XX=           -233.6149   YY=           -128.1401   ZZ=           -128.9042
   XY=             -1.6861   XZ=              0.6391   YZ=             14.9632
 Traceless Quadrupole moment (field-independent basis, Debye-Ang):
   XX=            -70.0618   YY=             35.4130   ZZ=             34.6488
   XY=             -1.6861   XZ=              0.6391   YZ=             14.9632
 Octapole moment (field-independent basis, Debye-Ang**2):
  XXX=           -450.0312  YYY=             19.2281  ZZZ=            -26.4344  XYY=           -108.2349
  XXY=            -46.1980  XXZ=            -21.9681  XZZ=            -38.5864  YZZ=             12.5268
  YYZ=              3.3552  XYZ=             38.6963
 Hexadecapole moment (field-independent basis, Debye-Ang**3):
 XXXX=          -7415.5638 YYYY=          -1420.8579 ZZZZ=           -601.0887 XXXY=           -138.5589
 XXXZ=            193.2930 YYYX=            -90.2780 YYYZ=             57.9500 ZZZX=           -103.2603
 ZZZY=             35.2220 XXYY=          -1398.2015 XXZZ=          -1150.1840 YYZZ=           -338.9921
 XXYZ=            137.8960 YYXZ=             19.5293 ZZXY=             14.1733
 N-N= 1.300748049449D+03 E-N=-4.778767218949D+03  KE= 9.087817876485D+02
 Entering OneElI...
 OneElI was handed    33156931 working-precision words.
 Calculate electrostatic properties
    NBasis =   294  MinDer = 0  MaxDer = 0
    NGrid  =    30  NMatD  =   1
 Requested accuracy = 0.1000D-12
 PrsmSu:  NPrtUS=   1 ThrOK=F IAlg=1 NPAlg=1 LenDen=           0.
 Prism:   IPart=     0 DynPar=F LinDyn=F Incr=         512.
 PRISM was handed    32850548 working-precision words and  3324 shell-pairs
 IPart=  0 NShTot=       99720 NBatch=        3324 AvBLen=        30.0
 PrSmSu:  NxtVal=            513.
 --------------------------------------------------------
       Center         ----      EFG at Nuclei      ----
                      3XX-RR        3YY-RR        3ZZ-RR
 --------------------------------------------------------
     1   Atom       -0.076154      0.121015     -0.044861
     2   Atom       -1.711477      1.637297      0.074180
     3   Atom       -0.227390      0.268699     -0.041310
     4   Atom        0.149889      0.042622     -0.192511
     5   Atom        0.081781      0.141893     -0.223675
     6   Atom        0.195904      0.158542     -0.354446
     7   Atom        0.065423      0.100884     -0.166306
     8   Atom        0.188699     -0.009153     -0.179546
     9   Atom        0.686071     -1.882364      1.196292
    10   Atom        0.178483     -0.339752      0.161269
    11   Atom       -0.078068      0.048646      0.029421
    12   Atom        0.000012      0.080948     -0.080960
    13   Atom       -0.574121      0.306393      0.267729
    14   Atom       -0.480247     -0.400409      0.880657
    15   Atom       -0.122366      1.458541     -1.336175
    16   Atom        0.292067      0.187030     -0.479098
    17   Atom       -0.108572      0.449453     -0.340881
    18   Atom        1.376534     -1.241949     -0.134584
    19   Atom        0.065879     -0.050664     -0.015215
    20   Atom        0.139371     -0.163409      0.024038
    21   Atom        0.088960     -0.090022      0.001062
    22   Atom       -0.204698      0.109345      0.095353
    23   Atom        0.150451      0.120988     -0.271438
    24   Atom       -0.046103     -0.019496      0.065599
    25   Atom        0.073945     -0.236620      0.162674
    26   Atom        0.022076     -0.119702      0.097626
    27   Atom        0.073811     -0.240086      0.166275
    28   Atom        0.138413     -0.019834     -0.118579
    29   Atom        0.109441     -0.210294      0.100853
    30   Atom       -0.203643      0.148569      0.055073
 --------------------------------------------------------
                        XY            XZ            YZ
 --------------------------------------------------------
     1   Atom       -0.109228     -0.220361     -0.105645
     2   Atom       -0.793222     -0.415194     -0.575771
     3   Atom       -0.079061      0.059913      0.104116
     4   Atom        0.018672     -0.149685      0.087974
     5   Atom        0.042766     -0.108215      0.098738
     6   Atom        0.075120     -0.198622      0.126959
     7   Atom       -0.023564     -0.119772      0.079970
     8   Atom        0.272917     -0.043523     -0.050154
     9   Atom        0.434390      0.780154     -0.096290
    10   Atom       -0.101375      0.038736      0.107771
    11   Atom       -0.019211      0.063803      0.025298
    12   Atom        0.026970     -0.099125     -0.079284
    13   Atom       -0.058650      0.063336      0.028033
    14   Atom       -0.077666      0.163617     -0.938524
    15   Atom       -0.165780     -0.060728     -0.155170
    16   Atom       -0.081502     -0.124965     -0.244853
    17   Atom        1.088421     -0.447201     -0.577576
    18   Atom       -0.200579     -0.236529      0.475581
    19   Atom        0.122067      0.102636     -0.186897
    20   Atom       -0.001178      0.010256      0.195886
    21   Atom        0.094218      0.084591     -0.193172
    22   Atom       -0.078407     -0.134016     -0.030040
    23   Atom       -0.000958     -0.008139      0.064888
    24   Atom        0.169299      0.129843     -0.109345
    25   Atom       -0.163441     -0.009342     -0.052995
    26   Atom        0.178268      0.102947     -0.134823
    27   Atom       -0.174643     -0.012475     -0.046114
    28   Atom        0.007755     -0.023582      0.207497
    29   Atom        0.095193      0.025755     -0.129073
    30   Atom       -0.019471      0.166119      0.004018
 --------------------------------------------------------


 ---------------------------------------------------------------------------------
              Nuclear Quadrupole in Principal Axis System
 ---------------------------------------------------------------------------------

       Atom             a.u.   MegaHertz   Gauss  10(-4) cm-1        Axes

              Baa    -0.3323   -44.597   -15.913   -14.876  0.6925  0.3178  0.6476
     1 C(13)  Bbb     0.1598    21.445     7.652     7.153  0.7171 -0.2059 -0.6659
              Bcc     0.1725    23.153     8.261     7.723 -0.0783  0.9256 -0.3704
 
              Baa    -2.0280   146.744    52.362    48.948  0.9371  0.2423  0.2514
     2 O(17)  Bbb     0.0887    -6.415    -2.289    -2.140 -0.3006  0.1933  0.9340
              Bcc     1.9393  -140.329   -50.073   -46.809 -0.1777  0.9508 -0.2539
 
              Baa    -0.2667   -35.788   -12.770   -11.938  0.9195  0.2014 -0.3375
     3 C(13)  Bbb    -0.0403    -5.403    -1.928    -1.802  0.3768 -0.2078  0.9027
              Bcc     0.3070    41.191    14.698    13.740 -0.1117  0.9572  0.2669
 
              Baa    -0.2737   -36.734   -13.108   -12.253  0.3313 -0.2709  0.9038
     4 C(13)  Bbb     0.0664     8.913     3.180     2.973  0.1814  0.9583  0.2207
              Bcc     0.2073    27.821     9.927     9.280  0.9259 -0.0909 -0.3666
 
              Baa    -0.2850   -38.243   -13.646   -12.757  0.3005 -0.2434  0.9222
     5 C(13)  Bbb     0.1142    15.330     5.470     5.113  0.9199 -0.1815 -0.3476
              Bcc     0.1708    22.914     8.176     7.643  0.2519  0.9528  0.1694
 
              Baa    -0.4526   -60.736   -21.672   -20.259  0.3092 -0.2297  0.9228
     6 C(13)  Bbb     0.1800    24.155     8.619     8.057 -0.2817  0.9047  0.3196
              Bcc     0.2726    36.581    13.053    12.202  0.9083  0.3588 -0.2151
 
              Baa    -0.2299   -30.857   -11.010   -10.293  0.3551 -0.1957  0.9141
     7 C(13)  Bbb     0.0630     8.460     3.019     2.822  0.7038  0.6995 -0.1236
              Bcc     0.1669    22.397     7.992     7.471 -0.6153  0.6873  0.3861
 
              Baa    -0.2111   -28.324   -10.107    -9.448 -0.4303  0.7176  0.5476
     8 C(13)  Bbb    -0.1763   -23.661    -8.443    -7.892  0.3949 -0.3959  0.8290
              Bcc     0.3874    51.985    18.549    17.340  0.8118  0.5730 -0.1130
 
              Baa    -1.9705   142.581    50.876    47.560 -0.1823  0.9804  0.0747
     9 O(17)  Bbb     0.1996   -14.446    -5.155    -4.819  0.7819  0.1906 -0.5936
              Bcc     1.7708  -128.135   -45.722   -42.741  0.5962  0.0498  0.8013
 
              Baa    -0.3824   -51.317   -18.311   -17.118  0.1877  0.9608 -0.2038
    10 C(13)  Bbb     0.1724    23.131     8.254     7.716 -0.5325  0.2739  0.8009
              Bcc     0.2100    28.186    10.058     9.402  0.8253 -0.0418  0.5631
 
              Baa    -0.1127   -15.120    -5.395    -5.043  0.8867  0.1728 -0.4289
    11 C(13)  Bbb     0.0415     5.563     1.985     1.856 -0.3980  0.7575 -0.5175
              Bcc     0.0712     9.557     3.410     3.188  0.2355  0.6295  0.7405
 
              Baa    -0.1592   -21.368    -7.625    -7.128  0.4874  0.2239  0.8440
    12 C(13)  Bbb     0.0135     1.808     0.645     0.603  0.7443 -0.6119 -0.2676
              Bcc     0.1458    19.560     6.980     6.525  0.4565  0.7586 -0.4649
 
              Baa    -0.5830   -78.232   -27.915   -26.095  0.9948  0.0680 -0.0763
    13 C(13)  Bbb     0.2612    35.056    12.509    11.693  0.0982 -0.4297  0.8976
              Bcc     0.3217    43.176    15.406    14.402 -0.0283  0.9004  0.4341
 
              Baa    -0.8963    64.855    23.142    21.633 -0.0193  0.8833  0.4683
    14 O(17)  Bbb    -0.4976    36.004    12.847    12.010  0.9952  0.0620 -0.0759
              Bcc     1.3939  -100.859   -35.989   -33.643  0.0961 -0.4646  0.8803
 
              Baa    -1.3488    97.596    34.825    32.554  0.0573  0.0585  0.9966
    15 O(17)  Bbb    -0.1348     9.751     3.479     3.253  0.9933  0.0972 -0.0628
              Bcc     1.4835  -107.347   -38.304   -35.807 -0.1006  0.9935 -0.0525
 
              Baa    -0.5832   -78.260   -27.925   -26.105  0.1628  0.3145  0.9352
    16 C(13)  Bbb     0.2466    33.086    11.806    11.036  0.4734  0.8067 -0.3537
              Bcc     0.3366    45.174    16.119    15.068  0.8657 -0.5003  0.0176
 
              Baa    -0.9532    68.971    24.611    23.006  0.7896 -0.6136 -0.0021
    17 O(17)  Bbb    -0.6197    44.841    16.000    14.957  0.2203  0.2804  0.9343
              Bcc     1.5729  -113.812   -40.611   -37.964  0.5727  0.7382 -0.3566
 
              Baa    -1.4223   102.913    36.722    34.328  0.0386  0.9396 -0.3400
    18 O(17)  Bbb    -0.0189     1.369     0.488     0.456  0.2033  0.3257  0.9234
              Bcc     1.4412  -104.282   -37.210   -34.785  0.9783 -0.1048 -0.1785
 
              Baa    -0.2917  -155.643   -55.537   -51.917 -0.4071  0.6794  0.6104
    19 H(1)   Bbb     0.1353    72.165    25.750    24.071  0.8765  0.1027  0.4703
              Bcc     0.1565    83.479    29.787    27.845  0.2568  0.7265 -0.6374
 
              Baa    -0.2869  -153.096   -54.628   -51.067  0.0152  0.8458 -0.5333
    20 H(1)   Bbb     0.1345    71.753    25.603    23.934  0.8499 -0.2919 -0.4387
              Bcc     0.1525    81.343    29.025    27.133  0.5267  0.4466  0.7233
 
              Baa    -0.2856  -152.384   -54.374   -50.830 -0.3198  0.7393  0.5926
    21 H(1)   Bbb     0.1294    69.020    24.628    23.023  0.9066  0.4205 -0.0354
              Bcc     0.1562    83.364    29.746    27.807  0.2753 -0.5259  0.8047
 
              Baa    -0.2742  -146.310   -52.207   -48.804  0.9127  0.2138  0.3483
    22 H(1)   Bbb     0.1277    68.148    24.317    22.732 -0.2019  0.9769 -0.0708
              Bcc     0.1465    78.162    27.890    26.072 -0.3554 -0.0057  0.9347
 
              Baa    -0.2820  -150.479   -53.695   -50.195  0.0182 -0.1589  0.9871
    23 H(1)   Bbb     0.1312    69.992    24.975    23.347  0.1146  0.9811  0.1558
              Bcc     0.1509    80.488    28.720    26.848  0.9932 -0.1103 -0.0361
 
              Baa    -0.2847  -151.919   -54.208   -50.675  0.6664 -0.6050 -0.4358
    24 H(1)   Bbb     0.1335    71.240    25.420    23.763  0.4596  0.7935 -0.3988
              Bcc     0.1512    80.678    28.788    26.911  0.5871  0.0654  0.8069
 
              Baa    -0.3126  -166.768   -59.507   -55.628  0.3894  0.9145  0.1096
    25 H(1)   Bbb     0.1390    74.173    26.467    24.741  0.8661 -0.3230 -0.3816
              Bcc     0.1735    92.595    33.040    30.886  0.3135 -0.2435  0.9178
 
              Baa    -0.3109  -165.886   -59.192   -55.333 -0.5252  0.7598  0.3831
    26 H(1)   Bbb     0.1403    74.844    26.706    24.965  0.7194  0.6370 -0.2770
              Bcc     0.1706    91.042    32.486    30.368  0.4545 -0.1302  0.8812
 
              Baa    -0.3225  -172.071   -61.399   -57.397  0.4039  0.9097  0.0961
    27 H(1)   Bbb     0.1492    79.593    28.401    26.549  0.8781 -0.3561 -0.3197
              Bcc     0.1733    92.478    32.999    30.847  0.2566 -0.2135  0.9426
 
              Baa    -0.2838  -151.414   -54.028   -50.506  0.0552 -0.6181  0.7842
    28 H(1)   Bbb     0.1331    71.013    25.339    23.687  0.7891  0.5082  0.3451
              Bcc     0.1507    80.401    28.689    26.819  0.6118 -0.5997 -0.5157
 
              Baa    -0.2816  -150.238   -53.609   -50.114 -0.2439  0.9138  0.3248
    29 H(1)   Bbb     0.1305    69.636    24.848    23.228  0.8795  0.0672  0.4711
              Bcc     0.1511    80.602    28.761    26.886 -0.4087 -0.4006  0.8201
 
              Baa    -0.2857  -152.427   -54.390   -50.844  0.8978  0.0443 -0.4382
    30 H(1)   Bbb     0.1346    71.824    25.629    23.958  0.4035  0.3158  0.8587
              Bcc     0.1511    80.603    28.761    26.886 -0.1764  0.9478 -0.2657
 

 ---------------------------------------------------------------------------------

 No NMR shielding tensors so no spin-rotation constants.
 Leave Link  601 at Wed Jun 22 10:37:10 2016, MaxMem=   33554432 cpu:       0.4
 Merz-Kollman atomic radii used.
 Atom Element Radius
    1     6    1.50
    2     8    1.40
    3     6    1.50
    4     6    1.50
    5     6    1.50
    6     6    1.50
    7     6    1.50
    8     6    1.50
    9     8    1.40
   10     6    1.50
   11     6    1.50
   12     6    1.50
   13     6    1.50
   14     8    1.40
   15     8    1.40
   16     6    1.50
   17     8    1.40
   18     8    1.40
   19     1    1.20
   20     1    1.20
   21     1    1.20
   22     1    1.20
   23     1    1.20
   24     1    1.20
   25     1    1.20
   26     1    1.20
   27     1    1.20
   28     1    1.20
   29     1    1.20
   30     1    1.20
 Generate VDW surfaces: Layer= 4 Dens= 6 Start= 1.400 Inc= 0.200

 **********************************************************************

            Electrostatic Properties Using The SCF Density

 **********************************************************************

       Atomic Center    1 is at  -4.911202 -1.199316 -0.437533
       Atomic Center    2 is at  -3.942478 -0.732334  0.493493
       Atomic Center    3 is at  -2.649078 -0.610454  0.061094
       Atomic Center    4 is at  -1.890156 -1.646350 -0.462363
       Atomic Center    5 is at  -0.565004 -1.419473 -0.862490
       Atomic Center    6 is at  -0.004379 -0.152029 -0.749590
       Atomic Center    7 is at  -0.767290  0.872992 -0.206137
       Atomic Center    8 is at  -2.074235  0.667358  0.185669
       Atomic Center    9 is at  -2.877699  1.635798  0.704568
       Atomic Center   10 is at  -2.538530  3.016717  0.416882
       Atomic Center   11 is at   1.415556  0.118417 -1.120723
       Atomic Center   12 is at   2.340428  0.251528  0.100540
       Atomic Center   13 is at   2.454527 -1.065772  0.827578
       Atomic Center   14 is at   2.480777 -2.108034  0.239598
       Atomic Center   15 is at   2.546817 -0.965403  2.140383
       Atomic Center   16 is at   3.714942  0.718298 -0.295167
       Atomic Center   17 is at   4.677770 -0.033551 -0.228527
       Atomic Center   18 is at   3.761657  1.981687 -0.746448
       Atomic Center   19 is at   1.902595  0.994020  0.783734
       Atomic Center   20 is at   1.456796  1.056364 -1.694705
       Atomic Center   21 is at   1.778753 -0.710182 -1.746004
       Atomic Center   22 is at  -1.533013  3.235911  0.805230
       Atomic Center   23 is at  -2.555019  3.179733 -0.670820
       Atomic Center   24 is at  -3.270937  3.682290  0.898280
       Atomic Center   25 is at  -0.326572  1.856193 -0.087384
       Atomic Center   26 is at   0.025634 -2.235665 -1.262982
       Atomic Center   27 is at  -2.323155 -2.634276 -0.563792
       Atomic Center   28 is at  -4.958330 -0.512276 -1.294751
       Atomic Center   29 is at  -4.628864 -2.203297 -0.787842
       Atomic Center   30 is at  -5.896105 -1.245618  0.049933
      ESP Fit Center   31 is at  -5.313019 -1.895284  1.502614
      ESP Fit Center   32 is at  -5.230484 -2.321475  1.308554
      ESP Fit Center   33 is at  -4.803552 -2.361036  1.308554
      ESP Fit Center   34 is at  -5.528062 -2.550050  1.047392
      ESP Fit Center   35 is at  -5.122528 -2.669125  1.047392
      ESP Fit Center   36 is at  -4.699875 -2.669125  1.047392
      ESP Fit Center   37 is at  -5.530372  0.433303  0.729165
      ESP Fit Center   38 is at  -5.530372 -2.831934  0.729165
      ESP Fit Center   39 is at  -5.121669 -2.932671  0.729165
      ESP Fit Center   40 is at  -4.700734 -2.932671  0.729165
      ESP Fit Center   41 is at  -5.629324  0.603036  0.366103
      ESP Fit Center   42 is at  -5.999987  0.406523  0.366103
      ESP Fit Center   43 is at  -5.629324 -3.001667  0.366103
      ESP Fit Center   44 is at  -5.015521  0.857690 -0.027843
      ESP Fit Center   45 is at  -5.427458  0.794584 -0.027843
      ESP Fit Center   46 is at  -5.818259  0.649847 -0.027843
      ESP Fit Center   47 is at  -6.171925  0.429405 -0.027843
      ESP Fit Center   48 is at  -5.714837  0.740831 -0.437533
      ESP Fit Center   49 is at  -6.077899  0.546771 -0.437533
      ESP Fit Center   50 is at  -6.396126  0.285609 -0.437533
      ESP Fit Center   51 is at  -6.473977  0.142283 -0.847222
      ESP Fit Center   52 is at  -6.749788 -0.579824 -1.241168
      ESP Fit Center   53 is at  -6.573631 -2.199566 -1.241168
      ESP Fit Center   54 is at  -6.319740 -2.533554 -1.241168
      ESP Fit Center   55 is at  -6.606550 -0.781450 -1.604230
      ESP Fit Center   56 is at  -6.657288 -1.199316 -1.604230
      ESP Fit Center   57 is at  -6.606550 -1.617181 -1.604230
      ESP Fit Center   58 is at  -6.457284 -2.010762 -1.604230
      ESP Fit Center   59 is at  -6.218166 -2.357185 -1.604230
      ESP Fit Center   60 is at  -3.426277 -1.199316 -1.922457
      ESP Fit Center   61 is at  -6.396126 -1.199316 -1.922457
      ESP Fit Center   62 is at  -6.335976 -1.617667 -1.922457
      ESP Fit Center   63 is at  -6.160399 -2.002126 -1.922457
      ESP Fit Center   64 is at  -5.883620 -2.321546 -1.922457
      ESP Fit Center   65 is at  -3.486427 -1.617667 -1.922457
      ESP Fit Center   66 is at  -5.903148 -1.813503 -2.183619
      ESP Fit Center   67 is at  -5.614294 -2.130360 -2.183619
      ESP Fit Center   68 is at  -3.823289 -1.620775 -2.183619
      ESP Fit Center   69 is at  -5.313019 -1.895284 -2.377680
      ESP Fit Center   70 is at  -4.215233 -1.601133 -2.377680
      ESP Fit Center   71 is at  -3.942478 -0.732334  2.453493
      ESP Fit Center   72 is at  -3.534971 -0.732334  2.410662
      ESP Fit Center   73 is at  -3.738724 -0.379423  2.410662
      ESP Fit Center   74 is at  -4.146231 -0.379423  2.410662
      ESP Fit Center   75 is at  -4.349984 -0.732334  2.410662
      ESP Fit Center   76 is at  -4.146231 -1.085246  2.410662
      ESP Fit Center   77 is at  -3.738724 -1.085246  2.410662
      ESP Fit Center   78 is at  -3.145274 -0.732334  2.284042
      ESP Fit Center   79 is at  -3.252079 -0.333733  2.284042
      ESP Fit Center   80 is at  -3.543876 -0.041936  2.284042
      ESP Fit Center   81 is at  -3.942478  0.064869  2.284042
      ESP Fit Center   82 is at  -4.341079 -0.041936  2.284042
      ESP Fit Center   83 is at  -4.632876 -0.333733  2.284042
      ESP Fit Center   84 is at  -4.739681 -0.732334  2.284042
      ESP Fit Center   85 is at  -4.632876 -1.130936  2.284042
      ESP Fit Center   86 is at  -4.341079 -1.422733  2.284042
      ESP Fit Center   87 is at  -3.942478 -1.529538  2.284042
      ESP Fit Center   88 is at  -3.543876 -1.422733  2.284042
      ESP Fit Center   89 is at  -3.252079 -1.130936  2.284042
      ESP Fit Center   90 is at  -3.091096  0.043803  2.079166
      ESP Fit Center   91 is at  -3.428961  0.298947  2.079166
      ESP Fit Center   92 is at  -3.836179  0.414810  2.079166
      ESP Fit Center   93 is at  -4.257754  0.375746  2.079166
      ESP Fit Center   94 is at  -4.636748  0.187029  2.079166
      ESP Fit Center   95 is at  -4.921978 -0.125854  2.079166
      ESP Fit Center   96 is at  -5.074921 -0.520644  2.079166
      ESP Fit Center   97 is at  -5.074921 -0.944025  2.079166
      ESP Fit Center   98 is at  -4.921978 -1.338815  2.079166
      ESP Fit Center   99 is at  -4.636748 -1.651697  2.079166
      ESP Fit Center  100 is at  -4.257754 -1.840414  2.079166
      ESP Fit Center  101 is at  -3.836179 -1.879479  2.079166
      ESP Fit Center  102 is at  -3.428961 -1.763615  2.079166
      ESP Fit Center  103 is at  -3.091096 -1.508472  2.079166
      ESP Fit Center  104 is at  -2.868214 -1.148506  2.079166
      ESP Fit Center  105 is at  -4.547556  0.592603  1.804989
      ESP Fit Center  106 is at  -4.896324  0.368463  1.804989
      ESP Fit Center  107 is at  -5.167817  0.055143  1.804989
      ESP Fit Center  108 is at  -5.340040 -0.321973  1.804989
      ESP Fit Center  109 is at  -5.399041 -0.732334  1.804989
      ESP Fit Center  110 is at  -5.340040 -1.142696  1.804989
      ESP Fit Center  111 is at  -5.167817 -1.519812  1.804989
      ESP Fit Center  112 is at  -4.896324 -1.833132  1.804989
      ESP Fit Center  113 is at  -4.547556 -2.057272  1.804989
      ESP Fit Center  114 is at  -4.149768 -2.174073  1.804989
      ESP Fit Center  115 is at  -3.735187 -2.174073  1.804989
      ESP Fit Center  116 is at  -3.337399 -2.057272  1.804989
      ESP Fit Center  117 is at  -2.988631 -1.833132  1.804989
      ESP Fit Center  118 is at  -4.665200  0.803528  1.473493
      ESP Fit Center  119 is at  -5.024447  0.575542  1.473493
      ESP Fit Center  120 is at  -5.315711  0.265378  1.473493
      ESP Fit Center  121 is at  -5.520689 -0.107476  1.473493
      ESP Fit Center  122 is at  -4.665200 -2.268197  1.473493
      ESP Fit Center  123 is at  -4.260540 -2.399678  1.473493
      ESP Fit Center  124 is at  -3.835896 -2.426395  1.473493
      ESP Fit Center  125 is at  -3.417949 -2.346667  1.473493
      ESP Fit Center  126 is at  -3.032960 -2.165505  1.473493
      ESP Fit Center  127 is at  -4.751268  0.947135  1.099166
      ESP Fit Center  128 is at  -5.104707  0.725055  1.099166
      ESP Fit Center  129 is at  -5.399867  0.429895  1.099166
      ESP Fit Center  130 is at  -5.621947  0.076456  1.099166
      ESP Fit Center  131 is at  -4.357272 -2.549669  1.099166
[...]
 7966 Fit      -0.155553
 7967 Fit      -0.146917
 7968 Fit      -0.139306
 7969 Fit      -0.132892
 7970 Fit      -0.127717
 7971 Fit      -0.123761
 7972 Fit      -0.189441
 7973 Fit      -0.190108
 7974 Fit      -0.180726
 7975 Fit      -0.170461
 7976 Fit      -0.160218
 7977 Fit      -0.150687
 7978 Fit      -0.142253
 7979 Fit      -0.135070
 7980 Fit      -0.129154
 7981 Fit      -0.124460
 7982 Fit      -0.185836
 7983 Fit      -0.175122
 7984 Fit      -0.164401
 7985 Fit      -0.154372
 7986 Fit      -0.145424
 7987 Fit      -0.137709
 7988 Fit      -0.131236
 7989 Fit      -0.177309
 7990 Fit      -0.166543
 7991 Fit      -0.156382
 7992 Fit      -0.147237
 7993 Fit      -0.139274
 7994 Fit      -0.165361
 7995 Fit      -0.155321
 7996 Fit      -0.146225
 7997 Fit      -0.153602
 7998 Fit      -0.145775
 7999 Fit      -0.138385
 8000 Fit      -0.131783
 8001 Fit      -0.126120
 8002 Fit      -0.121440
 8003 Fit      -0.151651
 8004 Fit      -0.143953
 8005 Fit      -0.136752
 8006 Fit      -0.130367
 8007 Fit      -0.124940
 8008 Fit      -0.120511
 8009 Fit      -0.117071
 8010 Fit      -0.114592
 8011 Fit      -0.156071
 8012 Fit      -0.148474
 8013 Fit      -0.140984
 8014 Fit      -0.134100
 8015 Fit      -0.128095
 8016 Fit      -0.123092
 8017 Fit      -0.119124
 8018 Fit      -0.116182
 8019 Fit      -0.114243
 8020 Fit      -0.113281
 8021 Fit      -0.152368
 8022 Fit      -0.145061
 8023 Fit      -0.138036
 8024 Fit      -0.131684
 8025 Fit      -0.126234
 8026 Fit      -0.121794
 8027 Fit      -0.118399
 8028 Fit      -0.116047
 8029 Fit      -0.114723
 8030 Fit      -0.114415
 8031 Fit      -0.115129
 8032 Fit      -0.154655
 8033 Fit      -0.147442
 8034 Fit      -0.140285
 8035 Fit      -0.133652
 8036 Fit      -0.127893
 8037 Fit      -0.123211
 8038 Fit      -0.119698
 8039 Fit      -0.117383
 8040 Fit      -0.116264
 8041 Fit      -0.116336
 8042 Fit      -0.117607
 8043 Fit      -0.120100
 8044 Fit      -0.156217
 8045 Fit      -0.149517
 8046 Fit      -0.142573
 8047 Fit      -0.135888
 8048 Fit      -0.129947
 8049 Fit      -0.125095
 8050 Fit      -0.121525
 8051 Fit      -0.119324
 8052 Fit      -0.118517
 8053 Fit      -0.119108
 8054 Fit      -0.121091
 8055 Fit      -0.124454
 8056 Fit      -0.129146
 8057 Fit      -0.150572
 8058 Fit      -0.144156
 8059 Fit      -0.137517
 8060 Fit      -0.131441
 8061 Fit      -0.126553
 8062 Fit      -0.123240
 8063 Fit      -0.121688
 8064 Fit      -0.121955
 8065 Fit      -0.124015
 8066 Fit      -0.127763
 8067 Fit      -0.132957
 8068 Fit      -0.139139
 8069 Fit      -0.145684
 8070 Fit      -0.151950
 8071 Fit      -0.155954
 8072 Fit      -0.145100
 8073 Fit      -0.138749
 8074 Fit      -0.132424
 8075 Fit      -0.127699
 8076 Fit      -0.125518
 8077 Fit      -0.126219
 8078 Fit      -0.129655
 8079 Fit      -0.135192
 8080 Fit      -0.141648
 8081 Fit      -0.147400
 8082 Fit      -0.150503
 8083 Fit      -0.149584
 8084 Fit      -0.140132
 8085 Fit      -0.133876
 8086 Fit      -0.130207
 8087 Fit      -0.132349
 8088 Fit      -0.138415
 8089 Fit      -0.142566
 8090 Fit      -0.135852
 8091 Fit      -0.119861
 8092 Fit      -0.118022
 8093 Fit      -0.118959
 8094 Fit      -0.122852
 8095 Fit      -0.115214
 8096 Fit      -0.113796
 8097 Fit      -0.114073
 8098 Fit      -0.116206
 8099 Fit      -0.120293
 8100 Fit      -0.126304
 8101 Fit      -0.113064
 8102 Fit      -0.111019
 8103 Fit      -0.110155
 8104 Fit      -0.110587
 8105 Fit      -0.112426
 8106 Fit      -0.115793
 8107 Fit      -0.120812
 8108 Fit      -0.127571
 8109 Fit      -0.136008
 8110 Fit      -0.113908
 8111 Fit      -0.110887
 8112 Fit      -0.108729
 8113 Fit      -0.107524
 8114 Fit      -0.107352
 8115 Fit      -0.108298
 8116 Fit      -0.110460
 8117 Fit      -0.113965
 8118 Fit      -0.118979
 8119 Fit      -0.125704
 8120 Fit      -0.134352
 8121 Fit      -0.112147
 8122 Fit      -0.109269
 8123 Fit      -0.107103
 8124 Fit      -0.105712
 8125 Fit      -0.105152
 8126 Fit      -0.105480
 8127 Fit      -0.106767
 8128 Fit      -0.109105
 8129 Fit      -0.112618
 8130 Fit      -0.117479
 8131 Fit      -0.123933
 8132 Fit      -0.132309
 8133 Fit      -0.109495
 8134 Fit      -0.106961
 8135 Fit      -0.105115
 8136 Fit      -0.104007
 8137 Fit      -0.103685
 8138 Fit      -0.104203
 8139 Fit      -0.105631
 8140 Fit      -0.108063
 8141 Fit      -0.111628
 8142 Fit      -0.116518
 8143 Fit      -0.123016
 8144 Fit      -0.131544
 8145 Fit      -0.110302
 8146 Fit      -0.107543
 8147 Fit      -0.105384
 8148 Fit      -0.103868
 8149 Fit      -0.103039
 8150 Fit      -0.102939
 8151 Fit      -0.103621
 8152 Fit      -0.105149
 8153 Fit      -0.107615
 8154 Fit      -0.111145
 8155 Fit      -0.115928
 8156 Fit      -0.122248
 8157 Fit      -0.130547
 8158 Fit      -0.108053
 8159 Fit      -0.105797
 8160 Fit      -0.104135
 8161 Fit      -0.103108
 8162 Fit      -0.102757
 8163 Fit      -0.103127
 8164 Fit      -0.104276
 8165 Fit      -0.106277
 8166 Fit      -0.109233
 8167 Fit      -0.113296
 8168 Fit      -0.118690
 8169 Fit      -0.125765
 8170 Fit      -0.107800
 8171 Fit      -0.105702
 8172 Fit      -0.104226
 8173 Fit      -0.103420
 8174 Fit      -0.103332
 8175 Fit      -0.104014
 8176 Fit      -0.105534
 8177 Fit      -0.107983
 8178 Fit      -0.111489
 8179 Fit      -0.116241
 8180 Fit      -0.122536
 8181 Fit      -0.130853
 8182 Fit      -0.107535
 8183 Fit      -0.105789
 8184 Fit      -0.104742
 8185 Fit      -0.104451
 8186 Fit      -0.104978
 8187 Fit      -0.106396
 8188 Fit      -0.108800
 8189 Fit      -0.112322
 8190 Fit      -0.117162
 8191 Fit      -0.123630
 8192 Fit      -0.108024
 8193 Fit      -0.106751
 8194 Fit      -0.106256
 8195 Fit      -0.106611
 8196 Fit      -0.107895
 8197 Fit      -0.110205
 8198 Fit      -0.113672
 8199 Fit      -0.118489
 8200 Fit      -0.124954
 8201 Fit      -0.108872
 8202 Fit      -0.108782
 8203 Fit      -0.109756
 8204 Fit      -0.111909
 8205 Fit      -0.115388
 8206 Fit      -0.120398
 8207 Fit      -0.112306
 8208 Fit      -0.114183
 8209 Fit      -0.200417
 8210 Fit      -0.230529
 8211 Fit      -0.212509
 8212 Fit      -0.195182
 8213 Fit      -0.224721
 8214 Fit      -0.205965
 8215 Fit      -0.189309
 8216 Fit      -0.211241
 8217 Fit      -0.193558
 8218 Fit      -0.178584
 8219 Fit      -0.214425
 8220 Fit      -0.196862
 8221 Fit      -0.181773
 8222 Fit      -0.169141
 8223 Fit      -0.196529
 8224 Fit      -0.182071
 8225 Fit      -0.169797
 8226 Fit      -0.159528
 8227 Fit      -0.191173
 8228 Fit      -0.177777
 8229 Fit      -0.166343
 8230 Fit      -0.156734
 8231 Fit      -0.184083
 8232 Fit      -0.171959
 8233 Fit      -0.161626
 8234 Fit      -0.177979
 8235 Fit      -0.167286
 8236 Fit      -0.158212
 8237 Fit      -0.180504
 8238 Fit      -0.169703
 8239 Fit      -0.160544
 8240 Fit      -0.172737
 8241 Fit      -0.163689
 8242 Fit      -0.156596
 8243 Fit      -0.174667
 8244 Fit      -0.165923
 8245 Fit      -0.159673
 8246 Fit      -0.175740
 8247 Fit      -0.167608
 8248 Fit      -0.225299
 8249 Fit      -0.242841
 8250 Fit      -0.207882
 8251 Fit      -0.221038
 8252 Fit      -0.204259
 8253 Fit      -0.217175
 8254 Fit      -0.196192
 8255 Fit      -0.207450
 8256 Fit      -0.222712
 8257 Fit      -0.189939
 8258 Fit      -0.199456
 8259 Fit      -0.212289
 8260 Fit      -0.191139
 8261 Fit      -0.201122
 8262 Fit      -0.214613
 8263 Fit      -0.188811
 8264 Fit      -0.197916
 8265 Fit      -0.210449
 8266 Fit      -0.186012
 8267 Fit      -0.193365
 8268 Fit      -0.203974
 8269 Fit      -0.218698
 8270 Fit      -0.190821
 8271 Fit      -0.199274
 8272 Fit      -0.211400
 8273 Fit      -0.192702
 8274 Fit      -0.200873
 8275 Fit      -0.213071
 8276 Fit      -0.203139
 8277 Fit      -0.215019
 8278 Fit      -0.214260
 8279 Fit      -0.224607
 8280 Fit      -0.164923
 8281 Fit      -0.167208
 8282 Fit      -0.166915
 8283 Fit      -0.160974
 8284 Fit      -0.158791
 8285 Fit      -0.160188
 8286 Fit      -0.164823
 8287 Fit      -0.172213
 8288 Fit      -0.156593
 8289 Fit      -0.153733
 8290 Fit      -0.153882
 8291 Fit      -0.156722
 8292 Fit      -0.162042
 8293 Fit      -0.169621
 8294 Fit      -0.179093
 8295 Fit      -0.154854
 8296 Fit      -0.150440
 8297 Fit      -0.148954
 8298 Fit      -0.149938
 8299 Fit      -0.153164
 8300 Fit      -0.158525
 8301 Fit      -0.165951
 8302 Fit      -0.175310
 8303 Fit      -0.153824
 8304 Fit      -0.148364
 8305 Fit      -0.145741
 8306 Fit      -0.145371
 8307 Fit      -0.146968
 8308 Fit      -0.150410
 8309 Fit      -0.155669
 8310 Fit      -0.162757
 8311 Fit      -0.171671
 8312 Fit      -0.182313
 8313 Fit      -0.146065
 8314 Fit      -0.143175
 8315 Fit      -0.142422
 8316 Fit      -0.143514
 8317 Fit      -0.146330
 8318 Fit      -0.150852
 8319 Fit      -0.157123
 8320 Fit      -0.165211
 8321 Fit      -0.175161
 8322 Fit      -0.186901
 8323 Fit      -0.144175
 8324 Fit      -0.141333
 8325 Fit      -0.140383
 8326 Fit      -0.141085
 8327 Fit      -0.143336
 8328 Fit      -0.147123
 8329 Fit      -0.152494
 8330 Fit      -0.159534
 8331 Fit      -0.168345
 8332 Fit      -0.178985
 8333 Fit      -0.191357
 8334 Fit      -0.144233
 8335 Fit      -0.140936
 8336 Fit      -0.139376
 8337 Fit      -0.139345
 8338 Fit      -0.140746
 8339 Fit      -0.143555
 8340 Fit      -0.147808
 8341 Fit      -0.153579
 8342 Fit      -0.160976
 8343 Fit      -0.170105
 8344 Fit      -0.181020
 8345 Fit      -0.140691
 8346 Fit      -0.139083
 8347 Fit      -0.138907
 8348 Fit      -0.140122
 8349 Fit      -0.142732
 8350 Fit      -0.146786
 8351 Fit      -0.152371
 8352 Fit      -0.159598
 8353 Fit      -0.168584
 8354 Fit      -0.179382
 8355 Fit      -0.140015
 8356 Fit      -0.139295
 8357 Fit      -0.139912
 8358 Fit      -0.141919
 8359 Fit      -0.145384
 8360 Fit      -0.150399
 8361 Fit      -0.157078
 8362 Fit      -0.165535
 8363 Fit      -0.175829
 8364 Fit      -0.140778
 8365 Fit      -0.140880
 8366 Fit      -0.142262
 8367 Fit      -0.145052
 8368 Fit      -0.149362
 8369 Fit      -0.155303
 8370 Fit      -0.162978
 8371 Fit      -0.172437
 8372 Fit      -0.143192
 8373 Fit      -0.144441
 8374 Fit      -0.147228
 8375 Fit      -0.151728
 8376 Fit      -0.158072
 8377 Fit      -0.166339
 8378 Fit      -0.147707
 8379 Fit      -0.150336
 8380 Fit      -0.154902
 8381 Fit      -0.161538
 8382 Fit      -0.134483
 8383 Fit      -0.133560
 8384 Fit      -0.127500
 8385 Fit      -0.123032
 8386 Fit      -0.126875
 8387 Fit      -0.122055
 8388 Fit      -0.118415
 8389 Fit      -0.115724
 8390 Fit      -0.130983
 8391 Fit      -0.124987
 8392 Fit      -0.120296
 8393 Fit      -0.116667
 8394 Fit      -0.113919
 8395 Fit      -0.111901
 8396 Fit      -0.125578
 8397 Fit      -0.120486
 8398 Fit      -0.116477
 8399 Fit      -0.113384
 8400 Fit      -0.111073
 8401 Fit      -0.109423
 8402 Fit      -0.131389
 8403 Fit      -0.125082
 8404 Fit      -0.119930
 8405 Fit      -0.115822
 8406 Fit      -0.112636
 8407 Fit      -0.110256
 8408 Fit      -0.108575
 8409 Fit      -0.131229
 8410 Fit      -0.125158
 8411 Fit      -0.120050
 8412 Fit      -0.115900
 8413 Fit      -0.112648
 8414 Fit      -0.110211
 8415 Fit      -0.108501
 8416 Fit      -0.141597
 8417 Fit      -0.134741
 8418 Fit      -0.128315
 8419 Fit      -0.122650
 8420 Fit      -0.117912
 8421 Fit      -0.114145
 8422 Fit      -0.111314
 8423 Fit      -0.109350
 8424 Fit      -0.108179
 8425 Fit      -0.154006
 8426 Fit      -0.150112
 8427 Fit      -0.144692
 8428 Fit      -0.138525
 8429 Fit      -0.132200
 8430 Fit      -0.126212
 8431 Fit      -0.120942
 8432 Fit      -0.116614
 8433 Fit      -0.113311
 8434 Fit      -0.111027
 8435 Fit      -0.109716
 8436 Fit      -0.144303
 8437 Fit      -0.140343
 8438 Fit      -0.134909
 8439 Fit      -0.128989
 8440 Fit      -0.123375
 8441 Fit      -0.118622
 8442 Fit      -0.115042
 8443 Fit      -0.112752
 8444 Fit      -0.111767
 8445 Fit      -0.135561
 8446 Fit      -0.130840
 8447 Fit      -0.125071
 8448 Fit      -0.119908
 8449 Fit      -0.116387
 8450 Fit      -0.114973
 8451 Fit      -0.127267
 8452 Fit      -0.121759
 8453 Fit      -0.119071
 8454 Fit      -0.124120
 8455 Fit      -0.140270
 8456 Fit      -0.124429
 8457 Fit      -0.128711
 8458 Fit      -0.133696
 8459 Fit      -0.139378
 8460 Fit      -0.116133
 8461 Fit      -0.119148
 8462 Fit      -0.122783
 8463 Fit      -0.127101
 8464 Fit      -0.132158
 8465 Fit      -0.138019
 8466 Fit      -0.111182
 8467 Fit      -0.113414
 8468 Fit      -0.116211
 8469 Fit      -0.119641
 8470 Fit      -0.123778
 8471 Fit      -0.128696
 8472 Fit      -0.134482
 8473 Fit      -0.141258
 8474 Fit      -0.108918
 8475 Fit      -0.110734
 8476 Fit      -0.113133
 8477 Fit      -0.116178
 8478 Fit      -0.119940
 8479 Fit      -0.124497
 8480 Fit      -0.129928
 8481 Fit      -0.136323
 8482 Fit      -0.143786
 8483 Fit      -0.107769
 8484 Fit      -0.109089
 8485 Fit      -0.111015
 8486 Fit      -0.113592
 8487 Fit      -0.116879
 8488 Fit      -0.120942
 8489 Fit      -0.125843
 8490 Fit      -0.131635
 8491 Fit      -0.138345
 8492 Fit      -0.145936
 8493 Fit      -0.154214
 8494 Fit      -0.163602
 8495 Fit      -0.165299
 8496 Fit      -0.163977
 8497 Fit      -0.107921
 8498 Fit      -0.108805
 8499 Fit      -0.110434
 8500 Fit      -0.112835
 8501 Fit      -0.116058
 8502 Fit      -0.120156
 8503 Fit      -0.125170
 8504 Fit      -0.131096
 8505 Fit      -0.137847
 8506 Fit      -0.145171
 8507 Fit      -0.152538
 8508 Fit      -0.159056
 8509 Fit      -0.152996
 8510 Fit      -0.154196
 8511 Fit      -0.152609
 8512 Fit      -0.109350
 8513 Fit      -0.109545
 8514 Fit      -0.110681
 8515 Fit      -0.112756
 8516 Fit      -0.115793
 8517 Fit      -0.119814
 8518 Fit      -0.124802
 8519 Fit      -0.130647
 8520 Fit      -0.137072
 8521 Fit      -0.143535
 8522 Fit      -0.149182
 8523 Fit      -0.143815
 8524 Fit      -0.144515
 8525 Fit      -0.142350
 8526 Fit      -0.137930
 8527 Fit      -0.111918
 8528 Fit      -0.111678
 8529 Fit      -0.112760
 8530 Fit      -0.115134
 8531 Fit      -0.118765
 8532 Fit      -0.123546
 8533 Fit      -0.129195
 8534 Fit      -0.135127
 8535 Fit      -0.140389
 8536 Fit      -0.135915
 8537 Fit      -0.135911
 8538 Fit      -0.132445
 8539 Fit      -0.126996
 8540 Fit      -0.121430
 8541 Fit      -0.117172
 8542 Fit      -0.114958
 8543 Fit      -0.115006
 8544 Fit      -0.117262
 8545 Fit      -0.121470
 8546 Fit      -0.126972
 8547 Fit      -0.132428
 8548 Fit      -0.129181
 8549 Fit      -0.127637
 8550 Fit      -0.122298
 8551 Fit      -0.118796
 8552 Fit      -0.120051
 8553 Fit      -0.125067
 8554 Fit      -0.123507
 8555 Fit      -0.135971
 8556 Fit      -0.139188
 8557 Fit      -0.130839
 8558 Fit      -0.126936
 8559 Fit      -0.127349
 8560 Fit      -0.132083
 8561 Fit      -0.135337
 8562 Fit      -0.127468
 8563 Fit      -0.122369
 8564 Fit      -0.119766
 8565 Fit      -0.119515
 8566 Fit      -0.121590
 8567 Fit      -0.126077
 8568 Fit      -0.133216
 8569 Fit      -0.129105
 8570 Fit      -0.122406
 8571 Fit      -0.117740
 8572 Fit      -0.114861
 8573 Fit      -0.113628
 8574 Fit      -0.113979
 8575 Fit      -0.115914
 8576 Fit      -0.119493
 8577 Fit      -0.124862
 8578 Fit      -0.132298
 8579 Fit      -0.121634
 8580 Fit      -0.116344
 8581 Fit      -0.112595
 8582 Fit      -0.110215
 8583 Fit      -0.109104
 8584 Fit      -0.109214
 8585 Fit      -0.110536
 8586 Fit      -0.113098
 8587 Fit      -0.116969
 8588 Fit      -0.122279
 8589 Fit      -0.129259
 8590 Fit      -0.121394
 8591 Fit      -0.115822
 8592 Fit      -0.111609
 8593 Fit      -0.108568
 8594 Fit      -0.106585
 8595 Fit      -0.105594
 8596 Fit      -0.105558
 8597 Fit      -0.106468
 8598 Fit      -0.108334
 8599 Fit      -0.111191
 8600 Fit      -0.115097
 8601 Fit      -0.120152
 8602 Fit      -0.126520
 8603 Fit      -0.117180
 8604 Fit      -0.112223
 8605 Fit      -0.108445
 8606 Fit      -0.105695
 8607 Fit      -0.103880
 8608 Fit      -0.102948
 8609 Fit      -0.102867
 8610 Fit      -0.103629
 8611 Fit      -0.105239
 8612 Fit      -0.107718
 8613 Fit      -0.111105
 8614 Fit      -0.115460
 8615 Fit      -0.120876
 8616 Fit      -0.113708
 8617 Fit      -0.109376
 8618 Fit      -0.106038
 8619 Fit      -0.103586
 8620 Fit      -0.101949
 8621 Fit      -0.101087
 8622 Fit      -0.100977
 8623 Fit      -0.101610
 8624 Fit      -0.102988
 8625 Fit      -0.105125
 8626 Fit      -0.108043
 8627 Fit      -0.111780
 8628 Fit      -0.116382
 8629 Fit      -0.109409
 8630 Fit      -0.105931
 8631 Fit      -0.103283
 8632 Fit      -0.101402
 8633 Fit      -0.100245
 8634 Fit      -0.099789
 8635 Fit      -0.100021
 8636 Fit      -0.100937
 8637 Fit      -0.102544
 8638 Fit      -0.104852
 8639 Fit      -0.107882
 8640 Fit      -0.111656
 8641 Fit      -0.116206
 8642 Fit      -0.106936
 8643 Fit      -0.103916
 8644 Fit      -0.101682
 8645 Fit      -0.100190
 8646 Fit      -0.099415
 8647 Fit      -0.099341
 8648 Fit      -0.099962
 8649 Fit      -0.101278
 8650 Fit      -0.103298
 8651 Fit      -0.106030
 8652 Fit      -0.109489
 8653 Fit      -0.113687
 8654 Fit      -0.104014
 8655 Fit      -0.101746
 8656 Fit      -0.100247
 8657 Fit      -0.099497
 8658 Fit      -0.099487
 8659 Fit      -0.100210
 8660 Fit      -0.101667
 8661 Fit      -0.103862
 8662 Fit      -0.106798
 8663 Fit      -0.110474
 8664 Fit      -0.102314
 8665 Fit      -0.100844
 8666 Fit      -0.100143
 8667 Fit      -0.100205
 8668 Fit      -0.101027
 8669 Fit      -0.102608
 8670 Fit      -0.104943
 8671 Fit      -0.101982
 8672 Fit      -0.101306
 8673 Fit      -0.101517
 8674 Fit      -0.102613
 -----------------------------------------------------------------
 Leave Link  602 at Wed Jun 22 12:16:49 2016, MaxMem=   33554432 cpu:       3.7

 Test job not archived.
 1\1\GINC-NODE36\FOpt\RHF\6-31G(d)\C12H12O6(2-)\DAVE\22-Jun-2016\0\\#HF
 /6-31G* SCF=tight Test Pop=MK iop(6/33=2) iop(6/42=6) opt\\remark line
  goes here\\-2,1\C,1.7014217601,1.6073930769,9.3054711836\O,1.99334406
 65,0.2837871593,9.6341806879\C,2.8483645708,-0.348988913,8.757867628\C
 ,2.3448256214,-1.2117744696,7.8002520623\C,3.1762424125,-1.8762825822,
 6.9158429945\C,4.5565562405,-1.6777774888,6.9670082369\C,5.0533423287,
 -0.8124208075,7.941853193\C,4.219727024,-0.1547564888,8.8356138778\O,4
 .6630764663,0.7098400682,9.800137267\C,6.0247270486,0.7451935641,10.08
 57677763\C,5.5087234304,-2.3542315722,5.9984064477\C,5.6957339128,-3.8
 766363932,6.1941351627\C,4.5329670868,-4.7146704186,5.5785514821\O,3.6
 845085211,-4.109812125,4.8929146539\O,4.5372951525,-5.9142525189,5.865
 2136653\C,7.1027646367,-4.2407815604,5.6189304541\O,7.2614524685,-4.01
 93265496,4.4105224388\O,7.9465339356,-4.6345110472,6.435718939\H,5.722
 4809214,-4.1072162851,7.2546885659\H,6.4737544804,-1.8613700168,6.0932
 790872\H,5.1627129701,-2.202913754,4.9862569\H,6.4129690092,-0.2419615
 093,10.3135396718\H,6.6018278084,1.1645504074,9.2665575233\H,6.1395946
 727,1.3824841145,10.9545012239\H,6.1157029984,-0.6651029449,7.99185141
 4\H,2.7958983573,-2.5691438707,6.1883796368\H,1.2788172177,-1.36432127
 41,7.7695529829\H,2.5919221893,2.2262081506,9.3154689493\H,1.236279588
 1,1.676777542,8.3246217848\H,1.0054331032,1.978018507,10.0509141092\\V
 ersion=EM64L-G09RevC.01\State=1-A\HF=-910.4947613\RMSD=6.284e-09\RMSF=
 4.339e-06\Dipole=-3.3470487,8.7782604,5.5722824\Quadrupole=6.8684009,-
 13.3889055,6.5205046,24.9781307,20.516094,-35.1582808\PG=C01 [X(C12H12
 O6)]\\@


 IT IS BY EATING THE LIGHT OF A STAR THAT WE EXIST, 
 IN THE FINAL ANALYSIS, 
 JUST AS IT IS BY PERCEIVING THE LIGHT OF STARS
 THAT WE DEFINE THE WORLD AROUND US.

                                    -- GILBERT GROSVENOR
 Job cpu time:  0 days  1 hours 40 minutes 42.2 seconds.
 File lengths (MBytes):  RWF=     66 Int=      0 D2E=      0 Chk=      8 Scr=      1
 Normal termination of Gaussian 09 at Wed Jun 22 12:16:49 2016.
