 Entering Gaussian System, Link 0=/usr/local/g09_c01/g09
 Initial command:
 /usr/local/g09_c01/l1.exe /scr/gf/dave/80784/Gau-9467.inp -scrdir=/scr/gf/dave/80784/
 Entering Link 1 = /usr/local/g09_c01/l1.exe PID=      9469.
  
 Copyright (c) 1988,1990,1992,1993,1995,1998,2003,2009,2011,
            Gaussian, Inc.  All Rights Reserved.
  
 This is part of the Gaussian(R) 09 program.  It is based on
 the Gaussian(R) 03 system (copyright 2003, Gaussian, Inc.),
 the Gaussian(R) 98 system (copyright 1998, Gaussian, Inc.),
 the Gaussian(R) 94 system (copyright 1995, Gaussian, Inc.),
 the Gaussian 92(TM) system (copyright 1992, Gaussian, Inc.),
 the Gaussian 90(TM) system (copyright 1990, Gaussian, Inc.),
 the Gaussian 88(TM) system (copyright 1988, Gaussian, Inc.),
 the Gaussian 86(TM) system (copyright 1986, Carnegie Mellon
 University), and the Gaussian 82(TM) system (copyright 1983,
 Carnegie Mellon University). Gaussian is a federally registered
 trademark of Gaussian, Inc.
  
 This software contains proprietary and confidential information,
 including trade secrets, belonging to Gaussian, Inc.
  
 This software is provided under written license and may be
 used, copied, transmitted, or stored only in accord with that
 written license.
  
 The following legend is applicable only to US Government
 contracts under FAR:
  
                    RESTRICTED RIGHTS LEGEND
  
 Use, reproduction and disclosure by the US Government is
 subject to restrictions as set forth in subparagraphs (a)
 and (c) of the Commercial Computer Software - Restricted
 Rights clause in FAR 52.227-19.
  
 Gaussian, Inc.
 340 Quinnipiac St., Bldg. 40, Wallingford CT 06492
  
  
 ---------------------------------------------------------------
 Warning -- This program may not be used in any manner that
 competes with the business of Gaussian, Inc. or will provide
 assistance to any competitor of Gaussian, Inc.  The licensee
 of this program is prohibited from giving any competitor of
 Gaussian, Inc. access to this program.  By using this program,
 the user acknowledges that Gaussian, Inc. is engaged in the
 business of creating and licensing software in the field of
 computational chemistry and represents and warrants to the
 licensee that it is not a competitor of Gaussian, Inc. and that
 it will not use this program in any manner prohibited above.
 ---------------------------------------------------------------
  

 Cite this work as:
 Gaussian 09, Revision C.01,
 M. J. Frisch, G. W. Trucks, H. B. Schlegel, G. E. Scuseria, 
 M. A. Robb, J. R. Cheeseman, G. Scalmani, V. Barone, B. Mennucci, 
 G. A. Petersson, H. Nakatsuji, M. Caricato, X. Li, H. P. Hratchian, 
 A. F. Izmaylov, J. Bloino, G. Zheng, J. L. Sonnenberg, M. Hada, 
 M. Ehara, K. Toyota, R. Fukuda, J. Hasegawa, M. Ishida, T. Nakajima, 
 Y. Honda, O. Kitao, H. Nakai, T. Vreven, J. A. Montgomery, Jr., 
 J. E. Peralta, F. Ogliaro, M. Bearpark, J. J. Heyd, E. Brothers, 
 K. N. Kudin, V. N. Staroverov, T. Keith, R. Kobayashi, J. Normand, 
 K. Raghavachari, A. Rendell, J. C. Burant, S. S. Iyengar, J. Tomasi, 
 M. Cossi, N. Rega, J. M. Millam, M. Klene, J. E. Knox, J. B. Cross, 
 V. Bakken, C. Adamo, J. Jaramillo, R. Gomperts, R. E. Stratmann, 
 O. Yazyev, A. J. Austin, R. Cammi, C. Pomelli, J. W. Ochterski, 
 R. L. Martin, K. Morokuma, V. G. Zakrzewski, G. A. Voth, 
 P. Salvador, J. J. Dannenberg, S. Dapprich, A. D. Daniels, 
 O. Farkas, J. B. Foresman, J. V. Ortiz, J. Cioslowski, 
 and D. J. Fox, Gaussian, Inc., Wallingford CT, 2010.
 
 ******************************************
 Gaussian 09:  EM64L-G09RevC.01 23-Sep-2011
                16-Jun-2016 
 ******************************************
 %chk=molecule
 ------------------------------------------------------------
 #HF/6-31G* SCF=tight Test Pop=MK iop(6/33=2) iop(6/42=6) opt
 ------------------------------------------------------------
 1/18=20,19=15,38=1/1,3;
 2/9=110,12=2,17=6,18=5,40=1/2;
 3/5=1,6=6,7=1,11=9,16=1,25=1,30=1,71=1/1,2,3;
 4//1;
 5/5=2,32=2,38=5/2;
 6/7=2,8=2,9=2,10=2,15=8,20=1,28=1,33=2,42=6/1,2;
 7//1,2,3,16;
 1/18=20,19=15/3(2);
 2/9=110/2;
 99//99;
 2/9=110/2;
 3/5=1,6=6,7=1,11=9,16=1,25=1,30=1,71=1/1,2,3;
 4/5=5,16=3/1;
 5/5=2,32=2,38=5/2;
 7//1,2,3,16;
 1/18=20,19=15/3(-5);
 2/9=110/2;
 6/7=2,8=2,9=2,10=2,15=8,19=2,20=1,28=1,33=2,42=6/1,2;
 99/9=1/99;
 ---------------------
 remark line goes here
 ---------------------
 Charge =  0 Multiplicity = 1
 Symbolic Z-Matrix:
 C                     0.977     6.754     12.902 
 C                    -0.371     6.778     13.593 
 O                    -0.84      5.801     14.181 
 N                    -1.043     7.971     13.502 
 C                    -2.452     8.172     13.643 
 C                    -3.18      8.91      12.701 
 C                    -4.543     9.097     12.854 
 C                    -5.219     8.553     13.937 
 C                    -4.474     7.819     14.864 
 C                    -3.105     7.629     14.725 
 S                    -5.507     7.232     16.142 
 C                    -6.87      8.026     15.343 
 N                    -6.585     8.653     14.23 
 N                    -8.073     7.971     15.834 
 C                    -8.448     7.191     16.997 
 H                    -8.238     6.128     16.809 
 H                    -7.869     7.531     17.868 
 H                    -9.522     7.323     17.196 
 H                    -8.809     8.519     15.365 
 H                    -2.555     7.057     15.464 
 H                    -5.089     9.675     12.117 
 H                    -2.671     9.338     11.845 
 H                    -0.49      8.784     13.318 
 H                     0.843     6.963     11.83 
 H                     1.629     7.52      13.346 
 H                     1.436     5.763     13.029 
 

 GradGradGradGradGradGradGradGradGradGradGradGradGradGradGradGradGradGrad
 Berny optimization.
 Initialization pass.
                           ----------------------------
                           !    Initial Parameters    !
                           ! (Angstroms and Degrees)  !
 --------------------------                            --------------------------
 ! Name  Definition              Value          Derivative Info.                !
 --------------------------------------------------------------------------------
 ! R1    R(1,2)                  1.515          estimate D2E/DX2                !
 ! R2    R(1,24)                 1.1004         estimate D2E/DX2                !
 ! R3    R(1,25)                 1.0995         estimate D2E/DX2                !
 ! R4    R(1,26)                 1.0995         estimate D2E/DX2                !
 ! R5    R(2,3)                  1.233          estimate D2E/DX2                !
 ! R6    R(2,4)                  1.3723         estimate D2E/DX2                !
 ! R7    R(4,5)                  1.4302         estimate D2E/DX2                !
 ! R8    R(4,23)                 1.0003         estimate D2E/DX2                !
 ! R9    R(5,6)                  1.4007         estimate D2E/DX2                !
 ! R10   R(5,10)                 1.3755         estimate D2E/DX2                !
 ! R11   R(6,7)                  1.3842         estimate D2E/DX2                !
 ! R12   R(6,22)                 1.084          estimate D2E/DX2                !
 ! R13   R(7,8)                  1.3877         estimate D2E/DX2                !
 ! R14   R(7,21)                 1.0841         estimate D2E/DX2                !
 ! R15   R(8,9)                  1.3975         estimate D2E/DX2                !
 ! R16   R(8,13)                 1.4006         estimate D2E/DX2                !
 ! R17   R(9,10)                 1.3891         estimate D2E/DX2                !
 ! R18   R(9,11)                 1.745          estimate D2E/DX2                !
 ! R19   R(10,20)                1.0843         estimate D2E/DX2                !
 ! R20   R(11,12)                1.7682         estimate D2E/DX2                !
 ! R21   R(12,13)                1.3089         estimate D2E/DX2                !
 ! R22   R(12,14)                1.3005         estimate D2E/DX2                !
 ! R23   R(14,15)                1.4497         estimate D2E/DX2                !
 ! R24   R(14,19)                1.0305         estimate D2E/DX2                !
 ! R25   R(15,16)                1.0997         estimate D2E/DX2                !
 ! R26   R(15,17)                1.0998         estimate D2E/DX2                !
 ! R27   R(15,18)                1.1002         estimate D2E/DX2                !
 ! A1    A(2,1,24)             109.4502         estimate D2E/DX2                !
 ! A2    A(2,1,25)             109.4145         estimate D2E/DX2                !
 ! A3    A(2,1,26)             109.4538         estimate D2E/DX2                !
 ! A4    A(24,1,25)            109.4682         estimate D2E/DX2                !
 ! A5    A(24,1,26)            109.5458         estimate D2E/DX2                !
 ! A6    A(25,1,26)            109.4948         estimate D2E/DX2                !
 ! A7    A(1,2,3)              122.9167         estimate D2E/DX2                !
 ! A8    A(1,2,4)              114.7874         estimate D2E/DX2                !
 ! A9    A(3,2,4)              122.2916         estimate D2E/DX2                !
 ! A10   A(2,4,5)              126.7319         estimate D2E/DX2                !
 ! A11   A(2,4,23)             116.6186         estimate D2E/DX2                !
 ! A12   A(5,4,23)             116.6495         estimate D2E/DX2                !
 ! A13   A(4,5,6)              121.3165         estimate D2E/DX2                !
 ! A14   A(4,5,10)             119.3249         estimate D2E/DX2                !
 ! A15   A(6,5,10)             119.3585         estimate D2E/DX2                !
 ! A16   A(5,6,7)              120.5707         estimate D2E/DX2                !
 ! A17   A(5,6,22)             119.6736         estimate D2E/DX2                !
 ! A18   A(7,6,22)             119.7557         estimate D2E/DX2                !
 ! A19   A(6,7,8)              120.8605         estimate D2E/DX2                !
 ! A20   A(6,7,21)             119.5232         estimate D2E/DX2                !
 ! A21   A(8,7,21)             119.6162         estimate D2E/DX2                !
 ! A22   A(7,8,9)              117.6366         estimate D2E/DX2                !
 ! A23   A(7,8,13)             127.6143         estimate D2E/DX2                !
 ! A24   A(9,8,13)             114.7485         estimate D2E/DX2                !
 ! A25   A(8,9,10)             122.0618         estimate D2E/DX2                !
 ! A26   A(8,9,11)             110.2979         estimate D2E/DX2                !
 ! A27   A(10,9,11)            127.6399         estimate D2E/DX2                !
 ! A28   A(5,10,9)             119.5109         estimate D2E/DX2                !
 ! A29   A(5,10,20)            120.2349         estimate D2E/DX2                !
 ! A30   A(9,10,20)            120.2542         estimate D2E/DX2                !
 ! A31   A(9,11,12)             88.5288         estimate D2E/DX2                !
 ! A32   A(11,12,13)           115.5634         estimate D2E/DX2                !
 ! A33   A(11,12,14)           121.5638         estimate D2E/DX2                !
 ! A34   A(13,12,14)           122.8695         estimate D2E/DX2                !
 ! A35   A(8,13,12)            110.8575         estimate D2E/DX2                !
 ! A36   A(12,14,15)           124.3967         estimate D2E/DX2                !
 ! A37   A(12,14,19)           117.7972         estimate D2E/DX2                !
 ! A38   A(15,14,19)           117.8061         estimate D2E/DX2                !
 ! A39   A(14,15,16)           109.4835         estimate D2E/DX2                !
 ! A40   A(14,15,17)           109.4411         estimate D2E/DX2                !
 ! A41   A(14,15,18)           109.4546         estimate D2E/DX2                !
 ! A42   A(16,15,17)           109.4928         estimate D2E/DX2                !
 ! A43   A(16,15,18)           109.4687         estimate D2E/DX2                !
 ! A44   A(17,15,18)           109.4866         estimate D2E/DX2                !
 ! D1    D(24,1,2,3)           119.3377         estimate D2E/DX2                !
 ! D2    D(24,1,2,4)           -59.9275         estimate D2E/DX2                !
 ! D3    D(25,1,2,3)          -120.7135         estimate D2E/DX2                !
 ! D4    D(25,1,2,4)            60.0213         estimate D2E/DX2                !
 ! D5    D(26,1,2,3)            -0.73           estimate D2E/DX2                !
 ! D6    D(26,1,2,4)          -179.9952         estimate D2E/DX2                !
 ! D7    D(1,2,4,5)            157.6656         estimate D2E/DX2                !
 ! D8    D(1,2,4,23)           -22.3333         estimate D2E/DX2                !
 ! D9    D(3,2,4,5)            -21.6047         estimate D2E/DX2                !
 ! D10   D(3,2,4,23)           158.3964         estimate D2E/DX2                !
 ! D11   D(2,4,5,6)           -130.6805         estimate D2E/DX2                !
 ! D12   D(2,4,5,10)            49.2844         estimate D2E/DX2                !
 ! D13   D(23,4,5,6)            49.3184         estimate D2E/DX2                !
 ! D14   D(23,4,5,10)         -130.7167         estimate D2E/DX2                !
 ! D15   D(4,5,6,7)           -179.882          estimate D2E/DX2                !
 ! D16   D(4,5,6,22)             0.1244         estimate D2E/DX2                !
 ! D17   D(10,5,6,7)             0.1531         estimate D2E/DX2                !
 ! D18   D(10,5,6,22)         -179.8405         estimate D2E/DX2                !
 ! D19   D(4,5,10,9)          -179.8401         estimate D2E/DX2                !
 ! D20   D(4,5,10,20)            0.1694         estimate D2E/DX2                !
 ! D21   D(6,5,10,9)             0.1255         estimate D2E/DX2                !
 ! D22   D(6,5,10,20)         -179.865          estimate D2E/DX2                !
 ! D23   D(5,6,7,8)             -0.3608         estimate D2E/DX2                !
 ! D24   D(5,6,7,21)           179.7214         estimate D2E/DX2                !
 ! D25   D(22,6,7,8)           179.6328         estimate D2E/DX2                !
 ! D26   D(22,6,7,21)           -0.285          estimate D2E/DX2                !
 ! D27   D(6,7,8,9)              0.2765         estimate D2E/DX2                !
 ! D28   D(6,7,8,13)           179.9617         estimate D2E/DX2                !
 ! D29   D(21,7,8,9)          -179.8057         estimate D2E/DX2                !
 ! D30   D(21,7,8,13)           -0.1205         estimate D2E/DX2                !
 ! D31   D(7,8,9,10)             0.006          estimate D2E/DX2                !
 ! D32   D(7,8,9,11)           179.7883         estimate D2E/DX2                !
 ! D33   D(13,8,9,10)         -179.7195         estimate D2E/DX2                !
 ! D34   D(13,8,9,11)            0.0628         estimate D2E/DX2                !
 ! D35   D(7,8,13,12)         -179.3112         estimate D2E/DX2                !
 ! D36   D(9,8,13,12)            0.3818         estimate D2E/DX2                !
 ! D37   D(8,9,10,5)            -0.2071         estimate D2E/DX2                !
 ! D38   D(8,9,10,20)          179.7835         estimate D2E/DX2                !
 ! D39   D(11,9,10,5)         -179.9493         estimate D2E/DX2                !
 ! D40   D(11,9,10,20)           0.0413         estimate D2E/DX2                !
 ! D41   D(8,9,11,12)           -0.3427         estimate D2E/DX2                !
 ! D42   D(10,9,11,12)         179.4244         estimate D2E/DX2                !
 ! D43   D(9,11,12,13)           0.6003         estimate D2E/DX2                !
 ! D44   D(9,11,12,14)         179.9641         estimate D2E/DX2                !
 ! D45   D(11,12,13,8)          -0.6639         estimate D2E/DX2                !
 ! D46   D(14,12,13,8)         179.9816         estimate D2E/DX2                !
 ! D47   D(11,12,14,15)         -4.9782         estimate D2E/DX2                !
 ! D48   D(11,12,14,19)        174.9976         estimate D2E/DX2                !
 ! D49   D(13,12,14,15)        174.3384         estimate D2E/DX2                !
 ! D50   D(13,12,14,19)         -5.6857         estimate D2E/DX2                !
 ! D51   D(12,14,15,16)        -60.0192         estimate D2E/DX2                !
 ! D52   D(12,14,15,17)         59.9963         estimate D2E/DX2                !
 ! D53   D(12,14,15,18)        179.9866         estimate D2E/DX2                !
 ! D54   D(19,14,15,16)        120.0049         estimate D2E/DX2                !
 ! D55   D(19,14,15,17)       -119.9796         estimate D2E/DX2                !
 ! D56   D(19,14,15,18)          0.0107         estimate D2E/DX2                !
 --------------------------------------------------------------------------------
 Trust Radius=3.00D-01 FncErr=1.00D-07 GrdErr=1.00D-07
 Number of steps in this run=    137 maximum allowed number of steps=    156.
 GradGradGradGradGradGradGradGradGradGradGradGradGradGradGradGradGradGrad

                          Input orientation:                          
 ---------------------------------------------------------------------
 Center     Atomic      Atomic             Coordinates (Angstroms)
 Number     Number       Type             X           Y           Z
 ---------------------------------------------------------------------
      1          6           0        0.977000    6.754000   12.902000
      2          6           0       -0.371000    6.778000   13.593000
      3          8           0       -0.840000    5.801000   14.181000
      4          7           0       -1.043000    7.971000   13.502000
      5          6           0       -2.452000    8.172000   13.643000
      6          6           0       -3.180000    8.910000   12.701000
      7          6           0       -4.543000    9.097000   12.854000
      8          6           0       -5.219000    8.553000   13.937000
      9          6           0       -4.474000    7.819000   14.864000
     10          6           0       -3.105000    7.629000   14.725000
     11         16           0       -5.507000    7.232000   16.142000
     12          6           0       -6.870000    8.026000   15.343000
     13          7           0       -6.585000    8.653000   14.230000
     14          7           0       -8.073000    7.971000   15.834000
     15          6           0       -8.448000    7.191000   16.997000
     16          1           0       -8.238000    6.128000   16.809000
     17          1           0       -7.869000    7.531000   17.868000
     18          1           0       -9.522000    7.323000   17.196000
     19          1           0       -8.809000    8.519000   15.365000
     20          1           0       -2.555000    7.057000   15.464000
     21          1           0       -5.089000    9.675000   12.117000
     22          1           0       -2.671000    9.338000   11.845000
     23          1           0       -0.490000    8.784000   13.318000
     24          1           0        0.843000    6.963000   11.830000
     25          1           0        1.629000    7.520000   13.346000
     26          1           0        1.436000    5.763000   13.029000
 ---------------------------------------------------------------------
                    Distance matrix (angstroms):
                    1          2          3          4          5
     1  C    0.000000
     2  C    1.514979   0.000000
     3  O    2.417755   1.232978   0.000000
     4  N    2.433411   1.372266   2.282794   0.000000
     5  C    3.783893   2.505254   2.917127   1.430232   0.000000
     6  C    4.687151   3.637522   4.163158   2.467811   1.400711
     7  C    5.996862   4.830059   5.131935   3.733334   2.418766
     8  C    6.534374   5.174173   5.177710   4.238741   2.808538
     9  C    5.890422   4.419698   4.212454   3.694578   2.388291
    10  C    4.555401   3.079023   2.961038   2.421681   1.375493
    11  S    7.264182   5.751697   5.260625   5.238608   4.057293
    12  C    8.315761   6.845218   6.531598   6.111157   4.736036
    13  N    7.909085   6.521901   6.414151   5.631063   4.202097
    14  N    9.590632   8.109632   7.730304   7.406695   6.036267
    15  C   10.285457   8.774720   8.230651   8.225415   6.940007
    16  H   10.028597   8.523781   7.857717   8.130247   6.905019
    17  H   10.174311   8.663870   8.123651   8.114791   6.899666
    18  H   11.357429   9.849844   9.315784   9.271407   7.957984
    19  H   10.244383   8.796073   8.502608   8.005113   6.595236
    20  H    4.373863   2.889349   2.482912   2.640262   2.137727
    21  H    6.778261   5.729809   6.109171   4.603472   3.397272
    22  H    4.593714   3.859936   4.617340   2.695315   2.154140
    23  H    2.538906   2.028256   3.124989   1.000317   2.080772
    24  H    1.100373   2.148532   3.116077   2.714525   3.950402
    25  H    1.099544   2.147457   3.122202   2.714281   4.143413
    26  H    1.099496   2.147922   2.551220   3.353272   4.614848
                    6          7          8          9         10
     6  C    0.000000
     7  C    1.384250   0.000000
     8  C    2.410947   1.387732   0.000000
     9  C    2.746504   2.382886   1.397537   0.000000
    10  C    2.396490   2.779120   2.437974   1.389094   0.000000
    11  S    4.480077   3.901085   2.586505   1.744976   2.816931
    12  C    4.623605   3.571707   2.231673   2.452164   3.835982
    13  N    3.741379   2.502054   1.400644   2.356657   3.661147
    14  N    5.885479   4.754911   3.476011   3.730523   5.101752
    15  C    7.011590   6.003858   4.652428   4.553762   5.822497
    16  H    7.085094   6.173331   4.821138   4.561820   5.739664
    17  H    7.112401   6.217301   4.849716   4.542355   5.708218
    18  H    7.933761   6.840357   5.536225   5.582700   6.883122
    19  H    6.239825   4.983770   3.863734   4.419641   5.808383
    20  H    3.385026   3.863398   3.415646   2.150164   1.084345
    21  H    2.137887   1.084144   2.142005   3.371790   3.863164
    22  H    1.083975   2.140221   3.388952   3.830474   3.376898
    23  H    2.762728   4.091464   4.774931   4.381050   3.186204
    24  H    4.553458   5.883156   6.611762   6.181293   4.940778
    25  H    5.047237   6.389255   6.950646   6.296057   4.931965
    26  H    5.596307   6.847965   7.273073   6.520925   5.194136
                   11         12         13         14         15
    11  S    0.000000
    12  C    1.768221   0.000000
    13  N    2.614779   1.308863   0.000000
    14  N    2.687999   1.300506   2.291743   0.000000
    15  C    3.063036   2.433727   3.642046   1.449688   0.000000
    16  H    3.020276   2.760975   3.969795   2.091530   1.099733
    17  H    2.940667   2.760190   4.017783   2.091022   1.099765
    18  H    4.152038   3.310728   4.380870   2.091542   1.100228
    19  H    3.628127   2.000813   2.500471   1.030515   2.134790
    20  H    3.033911   4.424119   4.506758   5.605410   6.090607
    21  H    4.726902   4.037108   2.783392   5.062012   6.423981
    22  H    5.562584   5.620405   4.634312   6.852913   8.032835
    23  H    5.962715   6.736437   6.164246   8.030760   8.910805
    24  H    7.680378   8.541751   7.986945   9.825637  10.633558
    25  H    7.669619   8.745116   8.338761  10.026083  10.723058
    26  H    7.749450   8.914337   8.609933  10.156986  10.746053
                   16         17         18         19         20
    16  H    0.000000
    17  H    1.796121   0.000000
    18  H    1.796232   1.796457   0.000000
    19  H    2.850975   2.850395   2.300293   0.000000
    20  H    5.913422   5.851708   7.183987   6.423376   0.000000
    21  H    6.671752   6.737888   7.140002   5.071907   4.947473
    22  H    8.120153   8.158491   8.923543   7.122935   4.279437
    23  H    8.903534   8.759118   9.937325   8.571242   3.442684
    24  H   10.390006  10.615037  11.677191  10.396079   4.976062
    25  H   10.549300  10.519535  11.798564  10.678305   4.712340
    26  H   10.392685  10.636013  11.826887  10.863354   4.850953
                   21         22         23         24         25
    21  H    0.000000
    22  H    2.456477   0.000000
    23  H    4.836019   2.689499   0.000000
    24  H    6.528854   4.241350   2.703160   0.000000
    25  H    7.161424   4.903889   2.467517   1.796191   0.000000
    26  H    7.662318   5.572246   3.594362   1.797011   1.795769
                   26
    26  H    0.000000
 Stoichiometry    C10H11N3OS
 Framework group  C1[X(C10H11N3OS)]
 Deg. of freedom    72
 Full point group                 C1      NOp   1
 Largest Abelian subgroup         C1      NOp   1
 Largest concise Abelian subgroup C1      NOp   1
                         Standard orientation:                         
 ---------------------------------------------------------------------
 Center     Atomic      Atomic             Coordinates (Angstroms)
 Number     Number       Type             X           Y           Z
 ---------------------------------------------------------------------
      1          6           0        5.353828   -0.527815   -0.183899
      2          6           0        3.852380   -0.723767   -0.134738
      3          8           0        3.290186   -1.714588   -0.606380
      4          7           0        3.158176    0.297530    0.463716
      5          6           0        1.777072    0.618181    0.275836
      6          6           0        1.365180    1.927341   -0.004230
      7          6           0        0.023988    2.220847   -0.180874
      8          6           0       -0.939978    1.226506   -0.092221
      9          6           0       -0.507313   -0.072841    0.186360
     10          6           0        0.834844   -0.379338    0.371448
     11         16           0       -1.869022   -1.161531    0.260148
     12          6           0       -2.928208    0.213025   -0.079450
     13          7           0       -2.325630    1.363195   -0.244172
     14          7           0       -4.217977    0.072642   -0.169466
     15          6           0       -4.909363   -1.200167   -0.110012
     16          1           0       -4.559821   -1.846047   -0.928592
     17          1           0       -4.700932   -1.685233    0.854741
     18          1           0       -5.992283   -1.034006   -0.210892
     19          1           0       -4.786680    0.923408   -0.290854
     20          1           0        1.137685   -1.397372    0.589850
     21          1           0       -0.276314    3.240844   -0.392517
     22          1           0        2.103634    2.716923   -0.083279
     23          1           0        3.671367    0.877610    1.096784
     24          1           0        5.585537    0.388084   -0.748045
     25          1           0        5.744178   -0.436210    0.839933
     26          1           0        5.819933   -1.392210   -0.678327
 ---------------------------------------------------------------------
 Rotational constants (GHZ):      1.5497967      0.2541463      0.2225342
 Standard basis: 6-31G(d) (6D, 7F)
 There are   251 symmetry adapted basis functions of A   symmetry.
 Integral buffers will be    131072 words long.
 Raffenetti 1 integral format.
 Two-electron integral symmetry is turned on.
   251 basis functions,   488 primitive gaussians,   251 cartesian basis functions
    58 alpha electrons       58 beta electrons
       nuclear repulsion energy      1042.2558878925 Hartrees.
 NAtoms=   26 NActive=   26 NUniq=   26 SFac= 1.00D+00 NAtFMM=   60 NAOKFM=F Big=F
 One-electron integrals computed using PRISM.
 NBasis=   251 RedAO= T  NBF=   251
 NBsUse=   251 1.00D-06 NBFU=   251
 Harris functional with IExCor=  205 diagonalized for initial guess.
 ExpMin= 1.17D-01 ExpMax= 2.19D+04 ExpMxC= 3.30D+03 IAcc=1 IRadAn=         1 AccDes= 0.00D+00
 HarFok:  IExCor=  205 AccDes= 0.00D+00 IRadAn=         1 IDoV= 1
 ScaDFX=  1.000000  1.000000  1.000000  1.000000
 FoFCou: FMM=F IPFlag=           0 FMFlag=      100000 FMFlg1=           0
         NFxFlg=           0 DoJE=T BraDBF=F KetDBF=T FulRan=T
         Omega=  0.000000  0.000000  1.000000  0.000000  0.000000 ICntrl=     500 IOpCl=  0
         NMat0=    1 NMatS0=    1 NMatT0=    0 NMatD0=    1 NMtDS0=    0 NMtDT0=    0
         I1Cent=           4 NGrid=           0.
 Petite list used in FoFCou.
 Initial guess orbital symmetries:
       Occupied  (A) (A) (A) (A) (A) (A) (A) (A) (A) (A) (A) (A)
                 (A) (A) (A) (A) (A) (A) (A) (A) (A) (A) (A) (A)
                 (A) (A) (A) (A) (A) (A) (A) (A) (A) (A) (A) (A)
                 (A) (A) (A) (A) (A) (A) (A) (A) (A) (A) (A) (A)
                 (A) (A) (A) (A) (A) (A) (A) (A) (A) (A)
       Virtual   (A) (A) (A) (A) (A) (A) (A) (A) (A) (A) (A) (A)
                 (A) (A) (A) (A) (A) (A) (A) (A) (A) (A) (A) (A)
                 (A) (A) (A) (A) (A) (A) (A) (A) (A) (A) (A) (A)
                 (A) (A) (A) (A) (A) (A) (A) (A) (A) (A) (A) (A)
                 (A) (A) (A) (A) (A) (A) (A) (A) (A) (A) (A) (A)
                 (A) (A) (A) (A) (A) (A) (A) (A) (A) (A) (A) (A)
                 (A) (A) (A) (A) (A) (A) (A) (A) (A) (A) (A) (A)
                 (A) (A) (A) (A) (A) (A) (A) (A) (A) (A) (A) (A)
                 (A) (A) (A) (A) (A) (A) (A) (A) (A) (A) (A) (A)
                 (A) (A) (A) (A) (A) (A) (A) (A) (A) (A) (A) (A)
                 (A) (A) (A) (A) (A) (A) (A) (A) (A) (A) (A) (A)
                 (A) (A) (A) (A) (A) (A) (A) (A) (A) (A) (A) (A)
                 (A) (A) (A) (A) (A) (A) (A) (A) (A) (A) (A) (A)
                 (A) (A) (A) (A) (A) (A) (A) (A) (A) (A) (A) (A)
                 (A) (A) (A) (A) (A) (A) (A) (A) (A) (A) (A) (A)
                 (A) (A) (A) (A) (A) (A) (A) (A) (A) (A) (A) (A)
                 (A)
 The electronic state of the initial guess is 1-A.
 Requested convergence on RMS density matrix=1.00D-08 within 128 cycles.
 Requested convergence on MAX density matrix=1.00D-06.
 Requested convergence on             energy=1.00D-06.
 No special actions if energy rises.
 Integral accuracy reduced to 1.0D-05 until final iterations.
 Initial convergence to 1.0D-05 achieved.  Increase integral accuracy.
 SCF Done:  E(RHF) =  -1020.81854092     A.U. after   17 cycles
             Convg  =    0.3856D-08             -V/T =  2.0014

 **********************************************************************

            Population analysis using the SCF density.

 **********************************************************************

 Orbital symmetries:
 BldTbl:  Degeneracy threshold= 1.00D-02
       Occupied  (A) (A) (A) (A) (A) (A) (A) (A) (A) (A) (A) (A)
                 (A) (A) (A) (A) (A) (A) (A) (A) (A) (A) (A) (A)
                 (A) (A) (A) (A) (A) (A) (A) (A) (A) (A) (A) (A)
                 (A) (A) (A) (A) (A) (A) (A) (A) (A) (A) (A) (A)
                 (A) (A) (A) (A) (A) (A) (A) (A) (A) (A)
       Virtual   (A) (A) (A) (A) (A) (A) (A) (A) (A) (A) (A) (A)
                 (A) (A) (A) (A) (A) (A) (A) (A) (A) (A) (A) (A)
                 (A) (A) (A) (A) (A) (A) (A) (A) (A) (A) (A) (A)
                 (A) (A) (A) (A) (A) (A) (A) (A) (A) (A) (A) (A)
                 (A) (A) (A) (A) (A) (A) (A) (A) (A) (A) (A) (A)
                 (A) (A) (A) (A) (A) (A) (A) (A) (A) (A) (A) (A)
                 (A) (A) (A) (A) (A) (A) (A) (A) (A) (A) (A) (A)
                 (A) (A) (A) (A) (A) (A) (A) (A) (A) (A) (A) (A)
                 (A) (A) (A) (A) (A) (A) (A) (A) (A) (A) (A) (A)
                 (A) (A) (A) (A) (A) (A) (A) (A) (A) (A) (A) (A)
                 (A) (A) (A) (A) (A) (A) (A) (A) (A) (A) (A) (A)
                 (A) (A) (A) (A) (A) (A) (A) (A) (A) (A) (A) (A)
                 (A) (A) (A) (A) (A) (A) (A) (A) (A) (A) (A) (A)
                 (A) (A) (A) (A) (A) (A) (A) (A) (A) (A) (A) (A)
                 (A) (A) (A) (A) (A) (A) (A) (A) (A) (A) (A) (A)
                 (A) (A) (A) (A) (A) (A) (A) (A) (A) (A) (A) (A)
                 (A)
 The electronic state is 1-A.
 Alpha  occ. eigenvalues --  -91.97156 -20.52505 -15.60261 -15.59099 -15.53590
 Alpha  occ. eigenvalues --  -11.35661 -11.34857 -11.28473 -11.27055 -11.26225
 Alpha  occ. eigenvalues --  -11.25663 -11.24265 -11.23537 -11.23278 -11.22679
 Alpha  occ. eigenvalues --   -8.98249  -6.66511  -6.66415  -6.66217  -1.36958
 Alpha  occ. eigenvalues --   -1.31431  -1.23948  -1.22243  -1.12768  -1.05954
 Alpha  occ. eigenvalues --   -1.02372  -0.98902  -0.98076  -0.94583  -0.83919
 Alpha  occ. eigenvalues --   -0.82115  -0.78796  -0.77679  -0.71213  -0.69923
 Alpha  occ. eigenvalues --   -0.67566  -0.65669  -0.64360  -0.62846  -0.61627
 Alpha  occ. eigenvalues --   -0.60166  -0.59139  -0.58177  -0.56886  -0.56589
 Alpha  occ. eigenvalues --   -0.56268  -0.54630  -0.53696  -0.51408  -0.49173
 Alpha  occ. eigenvalues --   -0.47030  -0.43008  -0.41788  -0.40923  -0.40607
 Alpha  occ. eigenvalues --   -0.37961  -0.31162  -0.27526
 Alpha virt. eigenvalues --    0.14084   0.14350   0.16628   0.18901   0.20383
 Alpha virt. eigenvalues --    0.21400   0.22778   0.25231   0.26645   0.27534
 Alpha virt. eigenvalues --    0.28349   0.30266   0.30629   0.31262   0.32117
 Alpha virt. eigenvalues --    0.32559   0.34459   0.36766   0.38014   0.38029
 Alpha virt. eigenvalues --    0.39925   0.40610   0.44357   0.47951   0.48631
 Alpha virt. eigenvalues --    0.50580   0.51943   0.55044   0.55713   0.56948
 Alpha virt. eigenvalues --    0.58438   0.63122   0.63610   0.64925   0.72133
 Alpha virt. eigenvalues --    0.72804   0.73408   0.74096   0.75529   0.76192
 Alpha virt. eigenvalues --    0.77118   0.77380   0.79524   0.79926   0.81106
 Alpha virt. eigenvalues --    0.81139   0.82972   0.83373   0.83829   0.86230
 Alpha virt. eigenvalues --    0.87330   0.89383   0.90630   0.92877   0.93876
 Alpha virt. eigenvalues --    0.95011   0.95751   0.96900   0.98721   1.00096
 Alpha virt. eigenvalues --    1.01863   1.03085   1.05793   1.07075   1.07602
 Alpha virt. eigenvalues --    1.08534   1.09650   1.10394   1.11593   1.12445
 Alpha virt. eigenvalues --    1.13158   1.13538   1.14218   1.14658   1.16272
 Alpha virt. eigenvalues --    1.16691   1.17484   1.19193   1.19336   1.19966
 Alpha virt. eigenvalues --    1.20329   1.20934   1.22242   1.23722   1.24472
 Alpha virt. eigenvalues --    1.27278   1.28191   1.30926   1.34621   1.35236
 Alpha virt. eigenvalues --    1.36324   1.38346   1.42125   1.45068   1.45705
 Alpha virt. eigenvalues --    1.47569   1.53114   1.53956   1.56822   1.59489
 Alpha virt. eigenvalues --    1.60396   1.63172   1.64850   1.65858   1.68007
 Alpha virt. eigenvalues --    1.69727   1.70881   1.72159   1.75014   1.76888
 Alpha virt. eigenvalues --    1.77620   1.78770   1.84812   1.85865   1.92456
 Alpha virt. eigenvalues --    1.94216   1.94992   1.95911   2.05507   2.07462
 Alpha virt. eigenvalues --    2.10241   2.11459   2.12939   2.15112   2.15706
 Alpha virt. eigenvalues --    2.17939   2.18639   2.20272   2.24306   2.25337
 Alpha virt. eigenvalues --    2.26375   2.29624   2.31520   2.32001   2.36655
 Alpha virt. eigenvalues --    2.37694   2.40254   2.41597   2.44140   2.45672
 Alpha virt. eigenvalues --    2.46479   2.48041   2.50006   2.50866   2.52151
 Alpha virt. eigenvalues --    2.53943   2.56426   2.58402   2.61590   2.64369
 Alpha virt. eigenvalues --    2.66681   2.70012   2.71794   2.76563   2.77900
 Alpha virt. eigenvalues --    2.80465   2.83169   2.86609   2.88054   2.90288
 Alpha virt. eigenvalues --    2.94028   2.96643   3.01458   3.02910   3.04637
 Alpha virt. eigenvalues --    3.06408   3.10150   3.13147   3.18558   3.20821
 Alpha virt. eigenvalues --    3.26389   3.28953   3.34162   3.38812   3.47664
 Alpha virt. eigenvalues --    3.54693   3.61767   3.84055   4.37823   4.39982
 Alpha virt. eigenvalues --    4.43946   4.50114   4.53047   4.53947   4.56487
 Alpha virt. eigenvalues --    4.60969   4.61925   4.72189   4.75144   4.81313
 Alpha virt. eigenvalues --    4.85644   4.90767   5.19072
          Condensed to atoms (all electrons):
              1          2          3          4          5          6
     1  C    5.266231   0.367120  -0.066138  -0.122434   0.003212  -0.000110
     2  C    0.367120   4.187989   0.600056   0.243513  -0.021670   0.001408
     3  O   -0.066138   0.600056   8.160041  -0.101488   0.002326   0.000185
     4  N   -0.122434   0.243513  -0.101488   7.427458   0.195200  -0.049112
     5  C    0.003212  -0.021670   0.002326   0.195200   4.562664   0.563986
     6  C   -0.000110   0.001408   0.000185  -0.049112   0.563986   4.941141
     7  C   -0.000001  -0.000015  -0.000011   0.003752  -0.045369   0.538204
     8  C    0.000000   0.000009   0.000008   0.000203  -0.025404  -0.037330
     9  C    0.000004   0.000068   0.000164   0.003460  -0.043956  -0.039433
    10  C    0.000173  -0.001793  -0.004234  -0.053096   0.596863  -0.048635
    11  S    0.000000  -0.000001  -0.000016  -0.000089   0.002008   0.000214
    12  C    0.000000   0.000000   0.000000   0.000000  -0.000077   0.000060
    13  N    0.000000   0.000000   0.000000  -0.000001  -0.000330   0.002983
    14  N    0.000000   0.000000   0.000000   0.000000   0.000000   0.000002
    15  C    0.000000   0.000000   0.000000   0.000000   0.000000   0.000000
    16  H    0.000000   0.000000   0.000000   0.000000   0.000000   0.000000
    17  H    0.000000   0.000000   0.000000   0.000000   0.000000   0.000000
    18  H    0.000000   0.000000   0.000000   0.000000   0.000000   0.000000
    19  H    0.000000   0.000000   0.000000   0.000000   0.000000   0.000000
    20  H    0.000101   0.001543   0.007358  -0.005265  -0.014646   0.002887
    21  H    0.000000   0.000000   0.000000  -0.000088   0.002026  -0.031300
    22  H   -0.000011   0.000076   0.000001  -0.000066  -0.034848   0.376557
    23  H    0.000937  -0.021998   0.002299   0.323905  -0.021712  -0.001547
    24  H    0.374771  -0.031697   0.001021   0.002264  -0.000358   0.000040
    25  H    0.372130  -0.033724   0.001145   0.002889   0.000011  -0.000009
    26  H    0.382664  -0.033108   0.003675   0.004309  -0.000042   0.000001
              7          8          9         10         11         12
     1  C   -0.000001   0.000000   0.000004   0.000173   0.000000   0.000000
     2  C   -0.000015   0.000009   0.000068  -0.001793  -0.000001   0.000000
     3  O   -0.000011   0.000008   0.000164  -0.004234  -0.000016   0.000000
     4  N    0.003752   0.000203   0.003460  -0.053096  -0.000089   0.000000
     5  C   -0.045369  -0.025404  -0.043956   0.596863   0.002008  -0.000077
     6  C    0.538204  -0.037330  -0.039433  -0.048635   0.000214   0.000060
     7  C    4.940538   0.567658  -0.053219  -0.037637   0.005042   0.002666
     8  C    0.567658   4.454537   0.507138  -0.012007  -0.064500  -0.089116
     9  C   -0.053219   0.507138   5.310333   0.479837   0.264175  -0.043425
    10  C   -0.037637  -0.012007   0.479837   4.920875  -0.042844   0.002354
    11  S    0.005042  -0.064500   0.264175  -0.042844  15.397220   0.310110
    12  C    0.002666  -0.089116  -0.043425   0.002354   0.310110   4.594018
    13  N   -0.044370   0.412003  -0.099015   0.006942  -0.073394   0.546205
    14  N   -0.000093   0.001769   0.003160  -0.000027  -0.071814   0.291105
    15  C    0.000001  -0.000099   0.000009   0.000000  -0.001792  -0.036319
    16  H    0.000000  -0.000004  -0.000027   0.000000   0.000252  -0.001666
    17  H    0.000000  -0.000002  -0.000004   0.000000   0.000055  -0.002130
    18  H    0.000000   0.000003  -0.000004   0.000000   0.000307   0.003506
    19  H   -0.000002   0.000424  -0.000021  -0.000001   0.002819  -0.020625
    20  H    0.000145   0.000969  -0.031341   0.370397  -0.000498  -0.000015
    21  H    0.372278  -0.026275   0.005037  -0.000094  -0.000088  -0.000126
    22  H   -0.023803   0.001496   0.000245   0.003169   0.000013   0.000002
    23  H    0.000011   0.000001  -0.000035   0.002148   0.000003   0.000000
    24  H    0.000000   0.000000   0.000000  -0.000004   0.000000   0.000000
    25  H    0.000000   0.000000   0.000000  -0.000005   0.000000   0.000000
    26  H    0.000000   0.000000   0.000000  -0.000004   0.000000   0.000000
             13         14         15         16         17         18
     1  C    0.000000   0.000000   0.000000   0.000000   0.000000   0.000000
     2  C    0.000000   0.000000   0.000000   0.000000   0.000000   0.000000
     3  O    0.000000   0.000000   0.000000   0.000000   0.000000   0.000000
     4  N   -0.000001   0.000000   0.000000   0.000000   0.000000   0.000000
     5  C   -0.000330   0.000000   0.000000   0.000000   0.000000   0.000000
     6  C    0.002983   0.000002   0.000000   0.000000   0.000000   0.000000
     7  C   -0.044370  -0.000093   0.000001   0.000000   0.000000   0.000000
     8  C    0.412003   0.001769  -0.000099  -0.000004  -0.000002   0.000003
     9  C   -0.099015   0.003160   0.000009  -0.000027  -0.000004  -0.000004
    10  C    0.006942  -0.000027   0.000000   0.000000   0.000000   0.000000
    11  S   -0.073394  -0.071814  -0.001792   0.000252   0.000055   0.000307
    12  C    0.546205   0.291105  -0.036319  -0.001666  -0.002130   0.003506
    13  N    6.979624  -0.084784   0.001646   0.000124   0.000049  -0.000039
    14  N   -0.084784   7.243900   0.213284  -0.051253  -0.051758  -0.031630
    15  C    0.001646   0.213284   4.952183   0.400489   0.400647   0.397538
    16  H    0.000124  -0.051253   0.400489   0.515339  -0.037447  -0.022696
    17  H    0.000049  -0.051758   0.400647  -0.037447   0.519816  -0.022831
    18  H   -0.000039  -0.031630   0.397538  -0.022696  -0.022831   0.487216
    19  H    0.004989   0.319847  -0.020661   0.001698   0.001799  -0.004149
    20  H   -0.000063   0.000000   0.000000   0.000000   0.000000   0.000000
    21  H    0.000800  -0.000007   0.000000   0.000000   0.000000   0.000000
    22  H   -0.000052   0.000000   0.000000   0.000000   0.000000   0.000000
    23  H    0.000000   0.000000   0.000000   0.000000   0.000000   0.000000
    24  H    0.000000   0.000000   0.000000   0.000000   0.000000   0.000000
    25  H    0.000000   0.000000   0.000000   0.000000   0.000000   0.000000
    26  H    0.000000   0.000000   0.000000   0.000000   0.000000   0.000000
             19         20         21         22         23         24
     1  C    0.000000   0.000101   0.000000  -0.000011   0.000937   0.374771
     2  C    0.000000   0.001543   0.000000   0.000076  -0.021998  -0.031697
     3  O    0.000000   0.007358   0.000000   0.000001   0.002299   0.001021
     4  N    0.000000  -0.005265  -0.000088  -0.000066   0.323905   0.002264
     5  C    0.000000  -0.014646   0.002026  -0.034848  -0.021712  -0.000358
     6  C    0.000000   0.002887  -0.031300   0.376557  -0.001547   0.000040
     7  C   -0.000002   0.000145   0.372278  -0.023803   0.000011   0.000000
     8  C    0.000424   0.000969  -0.026275   0.001496   0.000001   0.000000
     9  C   -0.000021  -0.031341   0.005037   0.000245  -0.000035   0.000000
    10  C   -0.000001   0.370397  -0.000094   0.003169   0.002148  -0.000004
    11  S    0.002819  -0.000498  -0.000088   0.000013   0.000003   0.000000
    12  C   -0.020625  -0.000015  -0.000126   0.000002   0.000000   0.000000
    13  N    0.004989  -0.000063   0.000800  -0.000052   0.000000   0.000000
    14  N    0.319847   0.000000  -0.000007   0.000000   0.000000   0.000000
    15  C   -0.020661   0.000000   0.000000   0.000000   0.000000   0.000000
    16  H    0.001698   0.000000   0.000000   0.000000   0.000000   0.000000
    17  H    0.001799   0.000000   0.000000   0.000000   0.000000   0.000000
    18  H   -0.004149   0.000000   0.000000   0.000000   0.000000   0.000000
    19  H    0.300668   0.000000   0.000003   0.000000   0.000000   0.000000
    20  H    0.000000   0.414790   0.000009  -0.000104  -0.000101  -0.000001
    21  H    0.000003   0.000009   0.464219  -0.002221  -0.000001   0.000000
    22  H    0.000000  -0.000104  -0.002221   0.474058   0.001517   0.000005
    23  H    0.000000  -0.000101  -0.000001   0.001517   0.327722   0.000095
    24  H    0.000000  -0.000001   0.000000   0.000005   0.000095   0.500310
    25  H    0.000000  -0.000012   0.000000  -0.000001   0.000960  -0.023468
    26  H    0.000000   0.000002   0.000000   0.000000  -0.000044  -0.017880
             25         26
     1  C    0.372130   0.382664
     2  C   -0.033724  -0.033108
     3  O    0.001145   0.003675
     4  N    0.002889   0.004309
     5  C    0.000011  -0.000042
     6  C   -0.000009   0.000001
     7  C    0.000000   0.000000
     8  C    0.000000   0.000000
     9  C    0.000000   0.000000
    10  C   -0.000005  -0.000004
    11  S    0.000000   0.000000
    12  C    0.000000   0.000000
    13  N    0.000000   0.000000
    14  N    0.000000   0.000000
    15  C    0.000000   0.000000
    16  H    0.000000   0.000000
    17  H    0.000000   0.000000
    18  H    0.000000   0.000000
    19  H    0.000000   0.000000
    20  H   -0.000012   0.000002
    21  H    0.000000   0.000000
    22  H   -0.000001   0.000000
    23  H    0.000960  -0.000044
    24  H   -0.023468  -0.017880
    25  H    0.517529  -0.018181
    26  H   -0.018181   0.460055
 Mulliken atomic charges:
              1
     1  C   -0.578648
     2  C    0.742225
     3  O   -0.606390
     4  N   -0.875316
     5  C    0.280115
     6  C   -0.220192
     7  C   -0.225778
     8  C    0.308518
     9  C   -0.263153
    10  C   -0.182377
    11  S    0.272819
    12  C    0.443475
    13  N   -0.653318
    14  N   -0.781702
    15  C   -0.306927
    16  H    0.195190
    17  H    0.191805
    18  H    0.192779
    19  H    0.413212
    20  H    0.253846
    21  H    0.215825
    22  H    0.203964
    23  H    0.385838
    24  H    0.194901
    25  H    0.180735
    26  H    0.218552
 Sum of Mulliken atomic charges =   0.00000
 Mulliken charges with hydrogens summed into heavy atoms:
              1
     1  C    0.015540
     2  C    0.742225
     3  O   -0.606390
     4  N   -0.489478
     5  C    0.280115
     6  C   -0.016228
     7  C   -0.009952
     8  C    0.308518
     9  C   -0.263153
    10  C    0.071469
    11  S    0.272819
    12  C    0.443475
    13  N   -0.653318
    14  N   -0.368490
    15  C    0.272848
 Sum of Mulliken charges with hydrogens summed into heavy atoms =   0.00000
 DipInt: DoE/N= T F RetVal/Mat= T F Init=T NMatP=  1 IDeriv=0 Min/MaxMlt=  0  4
 Entering OneElI...
 OneElI was handed    33390512 working-precision words.
 Multipole integrals L=0 to 4 MinM= 0 MaxM= 0.
 Requested accuracy = 0.1000D-12
 PrsmSu:  NPrtUS=   1 ThrOK=F IAlg=1 NPAlg=1 LenDen=           0.
 Prism:   IPart=     0 DynPar=F LinDyn=F Incr=          27.
 PRISM was handed    33131351 working-precision words and  2736 shell-pairs
 IPart=  0 NShTot=        2736 NBatch=          53 AvBLen=        51.6
 PrSmSu:  NxtVal=             28.
 Electronic moments (au):
       -116.00000000         -0.37834420          0.53740287          0.70878558
      -3939.91392114       -671.74958442       -121.04303080         11.33729986
          5.16287167         -1.46423253      -2323.89549251       -647.88430855
         -3.82911775        -45.27721957       3590.92733484        768.67164598
       -119.87151035         46.28949518        166.42391190       -357.80933649
    -273764.26085868      -9678.24915087       -503.25721086       1297.34241760
       1229.14216830       -283.11382404         92.09086435         -3.71940254
        -31.88791877     -16581.75102377      -4669.69830112       -775.43027602
      -1816.78135239        596.53449042         47.59869876
 Electronic spatial extent (au):  <R**2>=           4732.7065
 DipInt: DoE/N= F T RetVal/Mat= T F Init=T NMatP=  1 IDeriv=0 Min/MaxMlt=  0  4
 Nuclear    moments (au):
        116.00000000          0.00000000          0.00000000          0.00000000
       3899.62908711        598.68990204         48.10037758          0.00000000
          0.00000000          0.00000000       2261.47796097        660.04973202
          3.67263967         36.16259350      -3579.77286661       -750.03896975
        132.16110743        -50.73144806       -160.49589972        349.95116405
     263506.51742569       7332.26308279         71.19820206      -1056.38976781
       -966.76376085        423.27359068       -126.99354035         21.39297293
         48.59145951      13827.75409763       2279.32111589        281.79288055
       1802.10621393       -551.90286943        -33.13699752
 Total      moments (au):
          0.00000000         -0.37834420          0.53740287          0.70878558
        -40.28483403        -73.05968238        -72.94265321         11.33729986
          5.16287167         -1.46423253        -62.41753154         12.16542347
         -0.15647808         -9.11462607         11.15446822         18.63267623
         12.28959708         -4.44195289          5.92801218         -7.85817244
     -10257.74343299      -2345.98606808       -432.05900879        240.95264979
        262.37840745        140.15976663        -34.90267601         17.67357039
         16.70354075      -2753.99692614      -2390.37718524       -493.63739546
        -14.67513846         44.63162099         14.46170124
 Traceless Quadrup. (au):
         21.81088918        -10.96395917        -10.84693001         11.33729986
          5.16287167         -1.46423253
 Charge=              0.0000 electrons
 Dipole moment (field-independent basis, Debye):
    X=             -0.9617    Y=              1.3659    Z=              1.8016  Tot=              2.4569
 Quadrupole moment (field-independent basis, Debye-Ang):
   XX=            -54.1845   YY=            -98.2678   ZZ=            -98.1104
   XY=             15.2491   XZ=              6.9442   YZ=             -1.9694
 Traceless Quadrupole moment (field-independent basis, Debye-Ang):
   XX=             29.3364   YY=            -14.7469   ZZ=            -14.5895
   XY=             15.2491   XZ=              6.9442   YZ=             -1.9694
 Octapole moment (field-independent basis, Debye-Ang**2):
  XXX=            -44.4264  YYY=              8.6589  ZZZ=             -0.1114  XYY=             -6.4874
  XXY=              7.9393  XXZ=             13.2620  XZZ=              8.7473  YZZ=             -3.1616
  YYZ=              4.2193  XYZ=             -5.5931
 Hexadecapole moment (field-independent basis, Debye-Ang**3):
 XXXX=          -3863.5578 YYYY=           -883.6108 ZZZZ=           -162.7341 XXXY=             90.7543
 XXXZ=             98.8243 YYYX=             52.7909 YYYZ=            -13.1460 ZZZX=              6.6567
 ZZZY=              6.2914 XXYY=          -1037.2872 XXZZ=           -900.3306 YYZZ=           -185.9275
 XXYZ=             -5.5274 YYXZ=             16.8104 ZZXY=              5.4470
 N-N= 1.042255887893D+03 E-N=-4.488106905459D+03  KE= 1.019373680337D+03
 Entering OneElI...
 OneElI was handed    33263609 working-precision words.
 Calculate electrostatic properties
    NBasis =   251  MinDer = 0  MaxDer = 0
    NGrid  =    26  NMatD  =   1
 Requested accuracy = 0.1000D-12
 PrsmSu:  NPrtUS=   1 ThrOK=F IAlg=1 NPAlg=1 LenDen=           0.
 Prism:   IPart=     0 DynPar=F LinDyn=F Incr=         512.
 PRISM was handed    33027971 working-precision words and  2433 shell-pairs
 IPart=  0 NShTot=       63258 NBatch=        2433 AvBLen=        26.0
 PrSmSu:  NxtVal=            513.
 --------------------------------------------------------
       Center         ----      EFG at Nuclei      ----
                      3XX-RR        3YY-RR        3ZZ-RR
 --------------------------------------------------------
     1   Atom       -0.060138      0.053325      0.006813
     2   Atom        0.327508      0.064757     -0.392265
     3   Atom        1.237315     -0.693841     -0.543474
     4   Atom       -0.458842      0.107289      0.351554
     5   Atom       -0.138140      0.260879     -0.122739
     6   Atom        0.170440      0.111051     -0.281490
     7   Atom        0.154020      0.099156     -0.253176
     8   Atom        0.061020      0.210358     -0.271379
     9   Atom        0.069814      0.029215     -0.099029
    10   Atom        0.125786      0.164702     -0.290488
    11   Atom       -2.077919     -0.036968      2.114887
    12   Atom        0.191393      0.156159     -0.347551
    13   Atom       -0.304458      0.344033     -0.039575
    14   Atom       -0.562244     -0.519459      1.081703
    15   Atom        0.029839     -0.181403      0.151564
    16   Atom        0.097462     -0.010548     -0.086913
    17   Atom        0.124703      0.053968     -0.178671
    18   Atom       -0.267747      0.118292      0.149455
    19   Atom       -0.015783     -0.186823      0.202606
    20   Atom        0.106958     -0.251706      0.144747
    21   Atom        0.111578     -0.261552      0.149974
    22   Atom       -0.068704     -0.097048      0.165753
    23   Atom        0.013416     -0.002579     -0.010837
    24   Atom        0.117955     -0.154133      0.036178
    25   Atom        0.082479      0.147970     -0.230448
    26   Atom        0.060152     -0.119265      0.059113
 --------------------------------------------------------
                        XY            XZ            YZ
 --------------------------------------------------------
     1   Atom       -0.012396      0.004743      0.018321
     2   Atom        0.119932      0.008336      0.312828
     3   Atom       -0.852557     -0.697054      0.314818
     4   Atom        0.280677     -0.315258     -0.727063
     5   Atom        0.107455     -0.013518     -0.041316
     6   Atom       -0.028642      0.032194     -0.051382
     7   Atom        0.001167      0.037422     -0.067139
     8   Atom        0.088483      0.014998     -0.083972
     9   Atom       -0.218733      0.057790     -0.048974
    10   Atom        0.015059      0.058368     -0.066324
    11   Atom        0.381453     -0.476371      0.458887
    12   Atom        0.148758      0.021461     -0.077594
    13   Atom       -0.547802      0.098594     -0.105383
    14   Atom       -0.015238     -0.141154      0.133724
    15   Atom       -0.181928      0.004688      0.016506
    16   Atom        0.069333      0.101203     -0.186477
    17   Atom        0.025145     -0.070804      0.166148
    18   Atom        0.058968     -0.038578      0.007781
    19   Atom        0.219861     -0.038459      0.053425
    20   Atom        0.109465     -0.031361      0.093187
    21   Atom        0.116797     -0.026442      0.088177
    22   Atom       -0.228455      0.018987      0.029805
    23   Atom       -0.166859     -0.207686     -0.259053
    24   Atom       -0.074894      0.046765      0.184276
    25   Atom       -0.012402     -0.141438     -0.037157
    26   Atom        0.143218      0.082585     -0.150619
 --------------------------------------------------------


 ---------------------------------------------------------------------------------
              Nuclear Quadrupole in Principal Axis System
 ---------------------------------------------------------------------------------

       Atom             a.u.   MegaHertz   Gauss  10(-4) cm-1        Axes

              Baa    -0.0622    -8.340    -2.976    -2.782  0.9875  0.1219 -0.1003
     1 C(13)  Bbb     0.0016     0.216     0.077     0.072  0.1332 -0.3024  0.9438
              Bcc     0.0605     8.124     2.899     2.710 -0.0847  0.9453  0.3149
 
              Baa    -0.5537   -74.300   -26.512   -24.784  0.0541 -0.4590  0.8868
     2 C(13)  Bbb     0.1542    20.690     7.383     6.901 -0.5312  0.7388  0.4148
              Bcc     0.3995    53.610    19.129    17.882  0.8455  0.4934  0.2039
 
              Baa    -1.0253    74.188    26.472    24.747  0.2968  0.9372 -0.1831
     3 O(17)  Bbb    -0.7825    56.619    20.203    18.886  0.3520  0.0709  0.9333
              Bcc     1.8078  -130.808   -46.675   -43.633  0.8877 -0.3414 -0.3089
 
              Baa    -0.5759   -22.212    -7.926    -7.409  0.9538 -0.2824  0.1028
     4 N(14)  Bbb    -0.5063   -19.526    -6.967    -6.513  0.1435  0.7283  0.6700
              Bcc     1.0822    41.739    14.893    13.923 -0.2641 -0.6243  0.7352
 
              Baa    -0.1655   -22.205    -7.923    -7.407  0.9685 -0.2366  0.0777
     5 C(13)  Bbb    -0.1270   -17.047    -6.083    -5.686 -0.0503  0.1195  0.9916
              Bcc     0.2925    39.251    14.006    13.093  0.2439  0.9642 -0.1039
 
              Baa    -0.2899   -38.895   -13.879   -12.974 -0.0617  0.1226  0.9905
     6 C(13)  Bbb     0.1025    13.761     4.910     4.590  0.4214  0.9028 -0.0855
              Bcc     0.1873    25.135     8.969     8.384  0.9048 -0.4121  0.1073
 
              Baa    -0.2688   -36.067   -12.870   -12.031 -0.0872  0.1791  0.9800
     7 C(13)  Bbb     0.1108    14.874     5.307     4.961  0.1193  0.9785 -0.1682
              Bcc     0.1579    21.194     7.562     7.069  0.9890 -0.1023  0.1067
 
              Baa    -0.2882   -38.674   -13.800   -12.900 -0.0878  0.1806  0.9796
     8 C(13)  Bbb     0.0274     3.676     1.312     1.226  0.9153 -0.3734  0.1509
              Bcc     0.2608    34.998    12.488    11.674  0.3930  0.9099 -0.1325
 
              Baa    -0.1703   -22.851    -8.154    -7.622  0.6789  0.7328 -0.0469
     9 C(13)  Bbb    -0.1139   -15.279    -5.452    -5.096 -0.1110  0.1656  0.9799
              Bcc     0.2841    38.129    13.606    12.719  0.7258 -0.6600  0.1938
 
              Baa    -0.3082   -41.361   -14.759   -13.797 -0.1368  0.1418  0.9804
    10 C(13)  Bbb     0.1330    17.847     6.368     5.953  0.9781 -0.1375  0.1563
              Bcc     0.1752    23.514     8.390     7.843  0.1570  0.9803 -0.1199
 
              Baa    -2.2178   -90.927   -32.445   -30.330  0.9721 -0.1969  0.1277
    11 S(33)  Bbb    -0.0269    -1.103    -0.394    -0.368  0.2160  0.9635 -0.1584
              Bcc     2.2447    92.030    32.839    30.698 -0.0919  0.1816  0.9791
 
              Baa    -0.3629   -48.696   -17.376   -16.243 -0.0839  0.1708  0.9817
    12 C(13)  Bbb     0.0374     5.017     1.790     1.674 -0.6698  0.7198 -0.1824
              Bcc     0.3255    43.678    15.586    14.570  0.7378  0.6729 -0.0541
 
              Baa    -0.6188   -23.865    -8.515    -7.960  0.8704  0.4888 -0.0592
    13 N(14)  Bbb    -0.0649    -2.502    -0.893    -0.835 -0.0429  0.1951  0.9798
              Bcc     0.6836    26.366     9.408     8.795 -0.4905  0.8503 -0.1908
 
              Baa    -0.5746   -22.161    -7.908    -7.392  0.9933  0.0860  0.0777
    14 N(14)  Bbb    -0.5303   -20.451    -7.298    -6.822 -0.0790  0.9929 -0.0893
              Bcc     1.1049    42.613    15.205    14.214 -0.0848  0.0825  0.9930
 
              Baa    -0.2868   -38.483   -13.732   -12.837  0.4983  0.8662 -0.0379
    15 C(13)  Bbb     0.1336    17.934     6.399     5.982  0.8499 -0.4793  0.2191
              Bcc     0.1531    20.549     7.332     6.854 -0.1716  0.1414  0.9750
 
              Baa    -0.2788  -148.764   -53.083   -49.622 -0.3092  0.5954  0.7416
    16 H(1)   Bbb     0.1294    69.039    24.635    23.029  0.7421  0.6387 -0.2034
              Bcc     0.1494    79.725    28.448    26.593  0.5947 -0.4875  0.6393
 
              Baa    -0.2789  -148.807   -53.098   -49.637  0.1814 -0.4501  0.8743
    17 H(1)   Bbb     0.1292    68.923    24.594    22.990  0.7287  0.6585  0.1878
              Bcc     0.1497    79.884    28.505    26.646  0.6603 -0.6031 -0.4475
 
              Baa    -0.2801  -149.474   -53.336   -49.859  0.9849 -0.1475  0.0911
    18 H(1)   Bbb     0.1269    67.733    24.169    22.593  0.1546  0.9851 -0.0756
              Bcc     0.1532    81.741    29.167    27.266 -0.0786  0.0886  0.9930
 
              Baa    -0.3451  -184.138   -65.705   -61.422 -0.5609  0.8193 -0.1193
    19 H(1)   Bbb     0.1346    71.801    25.621    23.950  0.8236  0.5668  0.0205
              Bcc     0.2105   112.337    40.085    37.472 -0.0844  0.0868  0.9926
 
              Baa    -0.3040  -162.182   -57.871   -54.098 -0.2667  0.9398 -0.2138
    20 H(1)   Bbb     0.1369    73.056    26.068    24.369  0.9396  0.3029  0.1593
              Bcc     0.1670    89.126    31.802    29.729 -0.2144  0.1584  0.9638
 
              Baa    -0.3134  -167.206   -59.663   -55.774 -0.2712  0.9426 -0.1949
    21 H(1)   Bbb     0.1451    77.405    27.620    25.819  0.9576  0.2847  0.0444
              Bcc     0.1683    89.802    32.043    29.955 -0.0974  0.1745  0.9798
 
              Baa    -0.3143  -167.686   -59.835   -55.934  0.6823  0.7275 -0.0722
    22 H(1)   Bbb     0.1442    76.953    27.459    25.669  0.7166 -0.6461  0.2625
              Bcc     0.1701    90.733    32.376    30.265 -0.1444  0.2308  0.9622
 
              Baa    -0.4261  -227.321   -81.114   -75.826  0.5173  0.5856  0.6241
    23 H(1)   Bbb     0.1673    89.237    31.842    29.766  0.8238 -0.5383 -0.1777
              Bcc     0.2588   138.084    49.272    46.060 -0.2318 -0.6061  0.7609
 
              Baa    -0.2857  -152.427   -54.390   -50.844  0.2137  0.8341 -0.5086
    24 H(1)   Bbb     0.1372    73.196    26.118    24.415  0.9734 -0.2261  0.0382
              Bcc     0.1485    79.232    28.272    26.429  0.0831  0.5032  0.8602
 
              Baa    -0.2884  -153.882   -54.909   -51.329  0.3575  0.0893  0.9296
    25 H(1)   Bbb     0.1367    72.947    26.029    24.332  0.9305 -0.1185 -0.3465
              Bcc     0.1517    80.935    28.880    26.997  0.0792  0.9889 -0.1255
 
              Baa    -0.2844  -151.762   -54.152   -50.622 -0.4326  0.7829  0.4472
    26 H(1)   Bbb     0.1394    74.361    26.534    24.804  0.8937  0.4377  0.0983
              Bcc     0.1451    77.401    27.619    25.818  0.1188 -0.4422  0.8890
 

 ---------------------------------------------------------------------------------

 No NMR shielding tensors so no spin-rotation constants.
 Leave Link  601 at Thu Jun 16 11:07:08 2016, MaxMem=   33554432 cpu:       0.3
 Merz-Kollman atomic radii used.
 Atom Element Radius
    1     6    1.50
    2     6    1.50
    3     8    1.40
    4     7    1.50
    5     6    1.50
    6     6    1.50
    7     6    1.50
    8     6    1.50
    9     6    1.50
   10     6    1.50
   11    16    1.75
   12     6    1.50
   13     7    1.50
   14     7    1.50
   15     6    1.50
   16     1    1.20
   17     1    1.20
   18     1    1.20
   19     1    1.20
   20     1    1.20
   21     1    1.20
   22     1    1.20
   23     1    1.20
   24     1    1.20
   25     1    1.20
   26     1    1.20
 Generate VDW surfaces: Layer= 4 Dens= 6 Start= 1.400 Inc= 0.200

 **********************************************************************

            Electrostatic Properties Using The SCF Density

 **********************************************************************

       Atomic Center    1 is at   5.353828 -0.527815 -0.183899
       Atomic Center    2 is at   3.852380 -0.723767 -0.134738
       Atomic Center    3 is at   3.290186 -1.714588 -0.606380
       Atomic Center    4 is at   3.158176  0.297530  0.463716
       Atomic Center    5 is at   1.777072  0.618181  0.275836
       Atomic Center    6 is at   1.365180  1.927341 -0.004230
       Atomic Center    7 is at   0.023988  2.220847 -0.180874
       Atomic Center    8 is at  -0.939978  1.226506 -0.092221
       Atomic Center    9 is at  -0.507313 -0.072841  0.186360
       Atomic Center   10 is at   0.834844 -0.379338  0.371448
       Atomic Center   11 is at  -1.869022 -1.161531  0.260148
       Atomic Center   12 is at  -2.928208  0.213025 -0.079450
       Atomic Center   13 is at  -2.325630  1.363195 -0.244172
       Atomic Center   14 is at  -4.217977  0.072642 -0.169466
       Atomic Center   15 is at  -4.909363 -1.200167 -0.110012
       Atomic Center   16 is at  -4.559821 -1.846047 -0.928592
       Atomic Center   17 is at  -4.700932 -1.685233  0.854741
       Atomic Center   18 is at  -5.992283 -1.034006 -0.210892
       Atomic Center   19 is at  -4.786680  0.923408 -0.290854
       Atomic Center   20 is at   1.137685 -1.397372  0.589850
       Atomic Center   21 is at  -0.276314  3.240844 -0.392517
       Atomic Center   22 is at   2.103634  2.716923 -0.083279
       Atomic Center   23 is at   3.671367  0.877610  1.096784
       Atomic Center   24 is at   5.585537  0.388084 -0.748045
       Atomic Center   25 is at   5.744178 -0.436210  0.839933
       Atomic Center   26 is at   5.819933 -1.392210 -0.678327
      ESP Fit Center   27 is at   5.142501 -1.997625  1.301025
      ESP Fit Center   28 is at   5.143361 -2.261170  0.982799
      ESP Fit Center   29 is at   5.564296 -2.261170  0.982799
      ESP Fit Center   30 is at   5.972999 -2.160434  0.982799
      ESP Fit Center   31 is at   6.262609  1.186328  0.619736
      ESP Fit Center   32 is at   5.872873  1.341614  0.619736
      ESP Fit Center   33 is at   5.458866  1.409486  0.619736
      ESP Fit Center   34 is at   5.039947 -2.442404  0.619736
      ESP Fit Center   35 is at   5.458866 -2.465117  0.619736
      ESP Fit Center   36 is at   6.898366 -1.701942  0.619736
      ESP Fit Center   37 is at   7.413477 -0.527815  0.225791
      ESP Fit Center   38 is at   7.371316 -0.113211  0.225791
      ESP Fit Center   39 is at   7.246559  0.284420  0.225791
      ESP Fit Center   40 is at   7.044313  0.648797  0.225791
      ESP Fit Center   41 is at   7.246559 -1.340050  0.225791
      ESP Fit Center   42 is at   7.371316 -0.942419  0.225791
      ESP Fit Center   43 is at   7.453828 -0.527815 -0.183899
      ESP Fit Center   44 is at   7.413477 -0.118125 -0.183899
      ESP Fit Center   45 is at   7.293975  0.275820 -0.183899
      ESP Fit Center   46 is at   7.413477 -0.937505 -0.183899
      ESP Fit Center   47 is at   7.413477 -0.527815 -0.593589
      ESP Fit Center   48 is at   7.371316 -0.113211 -0.593589
      ESP Fit Center   49 is at   7.293975 -0.527815 -0.987534
      ESP Fit Center   50 is at   7.248616 -0.110741 -0.987534
      ESP Fit Center   51 is at   7.099914 -0.527815 -1.350596
      ESP Fit Center   52 is at   6.157463 -0.527815 -2.124046
      ESP Fit Center   53 is at   4.657860 -0.125998 -2.124046
      ESP Fit Center   54 is at   4.550193 -0.527815 -2.124046
      ESP Fit Center   55 is at   4.657860 -0.929633 -2.124046
      ESP Fit Center   56 is at   4.952011 -1.223784 -2.124046
      ESP Fit Center   57 is at   5.763518 -0.527815 -2.243548
      ESP Fit Center   58 is at   4.944139 -0.527815 -2.243548
      ESP Fit Center   59 is at   5.148983 -0.882617 -2.243548
      ESP Fit Center   60 is at   5.353828 -0.527815 -2.283899
      ESP Fit Center   61 is at   4.057225 -1.078569  1.924911
      ESP Fit Center   62 is at   3.450562 -1.419735  1.805409
      ESP Fit Center   63 is at   3.852380 -1.527402  1.805409
      ESP Fit Center   64 is at   4.254197 -1.419735  1.805409
      ESP Fit Center   65 is at   4.548348 -1.125585  1.805409
      ESP Fit Center   66 is at   3.149288 -1.654812  1.611348
      ESP Fit Center   67 is at   3.533098 -1.845926  1.611348
      ESP Fit Center   68 is at   3.960029 -1.885487  1.611348
      ESP Fit Center   69 is at   4.372422 -1.768152  1.611348
      ESP Fit Center   70 is at   2.879961 -1.845998  1.350186
      ESP Fit Center   71 is at   3.235520 -2.074501  1.350186
      ESP Fit Center   72 is at   3.641053 -2.193577  1.350186
      ESP Fit Center   73 is at   4.063707 -2.193577  1.350186
      ESP Fit Center   74 is at   4.469240 -2.074501  1.350186
      ESP Fit Center   75 is at   4.471551 -2.356386  1.031959
      ESP Fit Center   76 is at   4.761161 -2.437910  0.668897
      ESP Fit Center   77 is at   4.062847  1.009588 -1.301436
      ESP Fit Center   78 is at   4.063707  0.746043 -1.619662
      ESP Fit Center   79 is at   3.641053  0.746043 -1.619662
      ESP Fit Center   80 is at   3.235520  0.626968 -1.619662
      ESP Fit Center   81 is at   2.879961  0.398464 -1.619662
      ESP Fit Center   82 is at   2.603182  0.079044 -1.619662
      ESP Fit Center   83 is at   3.960029  0.437954 -1.880824
      ESP Fit Center   84 is at   3.533098  0.398393 -1.880824
      ESP Fit Center   85 is at   3.149288  0.207278 -1.880824
      ESP Fit Center   86 is at   2.860434 -0.109580 -1.880824
      ESP Fit Center   87 is at   4.254197 -0.027798 -2.074885
      ESP Fit Center   88 is at   3.852380  0.079868 -2.074885
      ESP Fit Center   89 is at   3.450562 -0.027798 -2.074885
      ESP Fit Center   90 is at   3.156411 -0.321949 -2.074885
      ESP Fit Center   91 is at   4.548348 -1.125585 -2.074885
      ESP Fit Center   92 is at   4.262070 -0.723767 -2.194387
      ESP Fit Center   93 is at   4.057225 -0.368965 -2.194387
      ESP Fit Center   94 is at   3.647535 -0.368965 -2.194387
      ESP Fit Center   95 is at   3.852380 -0.723767 -2.234738
      ESP Fit Center   96 is at   3.086433 -2.067499  1.310790
      ESP Fit Center   97 is at   2.599787 -2.113190  1.184169
      ESP Fit Center   98 is at   2.891584 -2.404987  1.184169
      ESP Fit Center   99 is at   3.290186 -2.511792  1.184169
      ESP Fit Center  100 is at   3.688788 -2.404987  1.184169
      ESP Fit Center  101 is at   2.595915 -2.633951  0.979294
      ESP Fit Center  102 is at   2.974910 -2.822668  0.979294
      ESP Fit Center  103 is at   3.396485 -2.861733  0.979294
      ESP Fit Center  104 is at   3.803703 -2.745869  0.979294
      ESP Fit Center  105 is at   4.141568 -2.490725  0.979294
      ESP Fit Center  106 is at   2.336340 -2.815386  0.705116
      ESP Fit Center  107 is at   2.685108 -3.039525  0.705116
      ESP Fit Center  108 is at   3.082895 -3.156326  0.705116
      ESP Fit Center  109 is at   3.497477 -3.156326  0.705116
      ESP Fit Center  110 is at   3.895265 -3.039525  0.705116
      ESP Fit Center  111 is at   4.244032 -2.815386  0.705116
      ESP Fit Center  112 is at   2.208216 -3.022465  0.373620
      ESP Fit Center  113 is at   2.567464 -3.250450  0.373620
      ESP Fit Center  114 is at   2.972123 -3.381932  0.373620
      ESP Fit Center  115 is at   3.396767 -3.408648  0.373620
      ESP Fit Center  116 is at   3.814714 -3.328921  0.373620
      ESP Fit Center  117 is at   4.199704 -3.147758  0.373620
      ESP Fit Center  118 is at   4.527544 -2.876545  0.373620
      ESP Fit Center  119 is at   1.832797 -2.876817 -0.000706
      ESP Fit Center  120 is at   2.127957 -3.171977 -0.000706
      ESP Fit Center  121 is at   2.481396 -3.394058 -0.000706
      ESP Fit Center  122 is at   2.875391 -3.531923 -0.000706
      ESP Fit Center  123 is at   3.290186 -3.578659 -0.000706
      ESP Fit Center  124 is at   3.704981 -3.531923 -0.000706
      ESP Fit Center  125 is at   4.098976 -3.394058 -0.000706
      ESP Fit Center  126 is at   4.452415 -3.171977 -0.000706
      ESP Fit Center  127 is at   4.747575 -2.876817 -0.000706
      ESP Fit Center  128 is at   1.619946 -2.719538 -0.401504
      ESP Fit Center  129 is at   1.875030 -3.055095 -0.401504
      ESP Fit Center  130 is at   2.196285 -3.327971 -0.401504
      ESP Fit Center  131 is at   2.568689 -3.525408 -0.401504
      ESP Fit Center  132 is at   2.974830 -3.638172 -0.401504
      ESP Fit Center  133 is at   3.395717 -3.660992 -0.401504
      ESP Fit Center  134 is at   3.811669 -3.592800 -0.401504
      ESP Fit Center  135 is at   4.203237 -3.436785 -0.401504
      ESP Fit Center  136 is at   4.552112 -3.200242 -0.401504
      ESP Fit Center  137 is at   4.841981 -2.894232 -0.401504
      ESP Fit Center  138 is at   1.442961 -2.336991 -0.811255
      ESP Fit Center  139 is at   1.619946 -2.719538 -0.811255
      ESP Fit Center  140 is at   1.875030 -3.055095 -0.811255
      ESP Fit Center  141 is at   2.196285 -3.327971 -0.811255
      ESP Fit Center  142 is at   2.568689 -3.525408 -0.811255
      ESP Fit Center  143 is at   2.974830 -3.638172 -0.811255
      ESP Fit Center  144 is at   3.395717 -3.660992 -0.811255
      ESP Fit Center  145 is at   3.811669 -3.592800 -0.811255
      ESP Fit Center  146 is at   4.203237 -3.436785 -0.811255
      ESP Fit Center  147 is at   4.552112 -3.200242 -0.811255
      ESP Fit Center  148 is at   4.841981 -2.894232 -0.811255
      ESP Fit Center  149 is at   1.426115 -1.714588 -1.212053
      ESP Fit Center  150 is at   1.472851 -2.129383 -1.212053
      ESP Fit Center  151 is at   1.610716 -2.523378 -1.212053
      ESP Fit Center  152 is at   1.832797 -2.876817 -1.212053
      ESP Fit Center  153 is at   2.127957 -3.171977 -1.212053
      ESP Fit Center  154 is at   2.481396 -3.394058 -1.212053
      ESP Fit Center  155 is at   2.875391 -3.531923 -1.212053
      ESP Fit Center  156 is at   3.290186 -3.578659 -1.212053
      ESP Fit Center  157 is at   3.704981 -3.531923 -1.212053
      ESP Fit Center  158 is at   4.098976 -3.394058 -1.212053
      ESP Fit Center  159 is at   4.452415 -3.171977 -1.212053
      ESP Fit Center  160 is at   4.747575 -2.876817 -1.212053
      ESP Fit Center  161 is at   2.208216 -0.406711 -1.586380
      ESP Fit Center  162 is at   1.916953 -0.716876 -1.586380
      ESP Fit Center  163 is at   1.711974 -1.089730 -1.586380
      ESP Fit Center  164 is at   1.606161 -1.501846 -1.586380
      ESP Fit Center  165 is at   1.606161 -1.927330 -1.586380
      ESP Fit Center  166 is at   1.711974 -2.339446 -1.586380
      ESP Fit Center  167 is at   1.916953 -2.712300 -1.586380
      ESP Fit Center  168 is at   2.208216 -3.022465 -1.586380
      ESP Fit Center  169 is at   2.567464 -3.250450 -1.586380
      ESP Fit Center  170 is at   2.972123 -3.381932 -1.586380
      ESP Fit Center  171 is at   3.396767 -3.408648 -1.586380
      ESP Fit Center  172 is at   3.814714 -3.328921 -1.586380
      ESP Fit Center  173 is at   4.199704 -3.147758 -1.586380
      ESP Fit Center  174 is at   4.527544 -2.876545 -1.586380
      ESP Fit Center  175 is at   4.777638 -2.532321 -1.586380
      ESP Fit Center  176 is at   2.685108 -0.389651 -1.917876
      ESP Fit Center  177 is at   2.336340 -0.613790 -1.917876
      ESP Fit Center  178 is at   2.064847 -0.927110 -1.917876
      ESP Fit Center  179 is at   1.892623 -1.304227 -1.917876
      ESP Fit Center  180 is at   1.833622 -1.714588 -1.917876
      ESP Fit Center  181 is at   1.892623 -2.124949 -1.917876
      ESP Fit Center  182 is at   2.064847 -2.502066 -1.917876
      ESP Fit Center  183 is at   2.336340 -2.815386 -1.917876
      ESP Fit Center  184 is at   2.685108 -3.039525 -1.917876
      ESP Fit Center  185 is at   3.082895 -3.156326 -1.917876
      ESP Fit Center  186 is at   3.497477 -3.156326 -1.917876
      ESP Fit Center  187 is at   3.895265 -3.039525 -1.917876
      ESP Fit Center  188 is at   4.244032 -2.815386 -1.917876
      ESP Fit Center  189 is at   4.515526 -2.502066 -1.917876
      ESP Fit Center  190 is at   4.687749 -2.124949 -1.917876
      ESP Fit Center  191 is at   4.442245 -1.714588 -2.192053
      ESP Fit Center  192 is at   4.364449 -1.298416 -2.192053
      ESP Fit Center  193 is at   3.396485 -0.567443 -2.192053
      ESP Fit Center  194 is at   2.974910 -0.606508 -2.192053
      ESP Fit Center  195 is at   2.595915 -0.795225 -2.192053
      ESP Fit Center  196 is at   2.310686 -1.108107 -2.192053
      ESP Fit Center  197 is at   2.157743 -1.502898 -2.192053
      ESP Fit Center  198 is at   2.157743 -1.926278 -2.192053
      ESP Fit Center  199 is at   2.310686 -2.321069 -2.192053
      ESP Fit Center  200 is at   2.595915 -2.633951 -2.192053
      ESP Fit Center  201 is at   2.974910 -2.822668 -2.192053
      ESP Fit Center  202 is at   3.396485 -2.861733 -2.192053
      ESP Fit Center  203 is at   3.803703 -2.745869 -2.192053
      ESP Fit Center  204 is at   4.141568 -2.490725 -2.192053
      ESP Fit Center  205 is at   4.364449 -2.130760 -2.192053
      ESP Fit Center  206 is at   4.087390 -1.714588 -2.396929
      ESP Fit Center  207 is at   3.980585 -1.315986 -2.396929
      ESP Fit Center  208 is at   3.688788 -1.024189 -2.396929
      ESP Fit Center  209 is at   3.290186 -0.917384 -2.396929
      ESP Fit Center  210 is at   2.891584 -1.024189 -2.396929
      ESP Fit Center  211 is at   2.599787 -1.315986 -2.396929
      ESP Fit Center  212 is at   2.492982 -1.714588 -2.396929
      ESP Fit Center  213 is at   2.599787 -2.113190 -2.396929
      ESP Fit Center  214 is at   2.891584 -2.404987 -2.396929
      ESP Fit Center  215 is at   3.290186 -2.511792 -2.396929
      ESP Fit Center  216 is at   3.688788 -2.404987 -2.396929
      ESP Fit Center  217 is at   3.980585 -2.113190 -2.396929
      ESP Fit Center  218 is at   3.697693 -1.714588 -2.523549
      ESP Fit Center  219 is at   3.493939 -1.361677 -2.523549
      ESP Fit Center  220 is at   3.086433 -1.361677 -2.523549
      ESP Fit Center  221 is at   2.882679 -1.714588 -2.523549
      ESP Fit Center  222 is at   3.086433 -2.067499 -2.523549
      ESP Fit Center  223 is at   3.493939 -2.067499 -2.523549
      ESP Fit Center  224 is at   3.290186 -1.714588 -2.566380
      ESP Fit Center  225 is at   2.748486  0.297530  2.523365
      ESP Fit Center  226 is at   2.953331 -0.057272  2.523365
      ESP Fit Center  227 is at   3.363021 -0.057272  2.523365
      ESP Fit Center  228 is at   2.462207  0.699348  2.403863
      ESP Fit Center  229 is at   2.354541  0.297530  2.403863
      ESP Fit Center  230 is at   2.462207 -0.104288  2.403863
      ESP Fit Center  231 is at   2.756358 -0.398439  2.403863
      ESP Fit Center  232 is at   3.158176 -0.506105  2.403863
      ESP Fit Center  233 is at   3.559993 -0.398439  2.403863
      ESP Fit Center  234 is at   2.455083  1.228575  2.209802
      ESP Fit Center  235 is at   2.166230 -0.316657  2.209802
      ESP Fit Center  236 is at   2.455083 -0.633515  2.209802
      ESP Fit Center  237 is at   2.838894 -0.824630  2.209802
      ESP Fit Center  238 is at   3.265825 -0.864191  2.209802
      ESP Fit Center  239 is at   3.678218 -0.746855  2.209802
      ESP Fit Center  240 is at   4.020376 -0.488469  2.209802
      ESP Fit Center  241 is at   2.185757 -0.824701  1.948640
      ESP Fit Center  242 is at   2.541316 -1.053205  1.948640
      ESP Fit Center  243 is at   2.946849 -1.172280  1.948640
      ESP Fit Center  244 is at   3.369503 -1.172280  1.948640
      ESP Fit Center  245 is at   3.775036 -1.053205  1.948640
      ESP Fit Center  246 is at   4.130594 -0.824701  1.948640
      ESP Fit Center  247 is at   4.407374 -0.505281  1.948640
      ESP Fit Center  248 is at   2.539005 -1.335089  1.630413
      ESP Fit Center  249 is at   2.947708 -1.435825  1.630413
      ESP Fit Center  250 is at   3.873503  2.228970  0.054026
      ESP Fit Center  251 is at   4.414200  1.776236 -0.339919
      ESP Fit Center  252 is at   4.066957  2.011673 -0.339919
      ESP Fit Center  253 is at   3.677220  2.166959 -0.339919
      ESP Fit Center  254 is at   4.150066  1.734531 -0.702982
      ESP Fit Center  255 is at   3.777346  1.930149 -0.702982
      ESP Fit Center  256 is at   4.130594  1.419761 -1.021208
      ESP Fit Center  257 is at   3.775036  1.648265 -1.021208
      ESP Fit Center  258 is at   3.369503  1.767340 -1.021208
      ESP Fit Center  259 is at   4.020376  1.083529 -1.282370
      ESP Fit Center  260 is at   3.678218  1.341915 -1.282370
      ESP Fit Center  261 is at   3.265825  1.459251 -1.282370
      ESP Fit Center  262 is at   3.559993  0.993498 -1.476431
      ESP Fit Center  263 is at   3.158176  1.101165 -1.476431
      ESP Fit Center  264 is at   2.953331  0.652332 -1.595933
      ESP Fit Center  265 is at   1.777072  0.618181  2.375836
      ESP Fit Center  266 is at   2.186762  0.618181  2.335485
      ESP Fit Center  267 is at   1.981917  0.972983  2.335485
      ESP Fit Center  268 is at   1.572228  0.972983  2.335485
      ESP Fit Center  269 is at   1.367383  0.618181  2.335485
      ESP Fit Center  270 is at   1.572228  0.263380  2.335485
      ESP Fit Center  271 is at   1.981917  0.263380  2.335485
      ESP Fit Center  272 is at   2.178890  1.314150  2.215983
      ESP Fit Center  273 is at   1.777072  1.421816  2.215983
      ESP Fit Center  274 is at   1.375255  1.314150  2.215983
[...]
 7128 Fit       0.013199
 7129 Fit       0.012924
 7130 Fit       0.012727
 7131 Fit       0.012648
 7132 Fit       0.017691
 7133 Fit       0.016121
 7134 Fit       0.015089
 7135 Fit       0.014383
 7136 Fit       0.013871
 7137 Fit       0.013475
 7138 Fit       0.013160
 7139 Fit       0.012921
 7140 Fit       0.012785
 7141 Fit       0.016186
 7142 Fit       0.015051
 7143 Fit       0.014279
 7144 Fit       0.013735
 7145 Fit       0.013336
 7146 Fit       0.013045
 7147 Fit       0.012870
 7148 Fit       0.014875
 7149 Fit       0.014095
 7150 Fit       0.013550
 7151 Fit       0.013174
 7152 Fit       0.012945
 7153 Fit      -0.002285
 7154 Fit       0.001039
 7155 Fit      -0.005933
 7156 Fit      -0.000789
 7157 Fit       0.002943
 7158 Fit       0.005594
 7159 Fit       0.007414
 7160 Fit      -0.005157
 7161 Fit       0.000260
 7162 Fit       0.004240
 7163 Fit       0.007175
 7164 Fit       0.009336
 7165 Fit       0.010937
 7166 Fit       0.012163
 7167 Fit      -0.008080
 7168 Fit      -0.001298
 7169 Fit       0.003611
 7170 Fit       0.007234
 7171 Fit       0.009942
 7172 Fit       0.011998
 7173 Fit       0.013612
 7174 Fit       0.014986
 7175 Fit      -0.003676
 7176 Fit       0.002172
 7177 Fit       0.006468
 7178 Fit       0.009694
 7179 Fit       0.012160
 7180 Fit       0.014093
 7181 Fit       0.015689
 7182 Fit       0.017147
 7183 Fit       0.018728
 7184 Fit      -0.004625
 7185 Fit       0.001682
 7186 Fit       0.006310
 7187 Fit       0.009793
 7188 Fit       0.012468
 7189 Fit       0.014571
 7190 Fit       0.016295
 7191 Fit       0.017821
 7192 Fit       0.019365
 7193 Fit      -0.001852
 7194 Fit       0.003941
 7195 Fit       0.008228
 7196 Fit       0.011475
 7197 Fit       0.013987
 7198 Fit       0.015988
 7199 Fit       0.017667
 7200 Fit       0.019216
 7201 Fit       0.020872
 7202 Fit      -0.004313
 7203 Fit       0.002312
 7204 Fit       0.007174
 7205 Fit       0.010825
 7206 Fit       0.013619
 7207 Fit       0.015809
 7208 Fit       0.017600
 7209 Fit       0.019179
 7210 Fit       0.020752
 7211 Fit       0.000422
 7212 Fit       0.005728
 7213 Fit       0.009724
 7214 Fit       0.012772
 7215 Fit       0.015136
 7216 Fit       0.017019
 7217 Fit       0.018597
 7218 Fit       0.020030
 7219 Fit       0.001676
 7220 Fit       0.006722
 7221 Fit       0.010537
 7222 Fit       0.013428
 7223 Fit       0.015640
 7224 Fit       0.017370
 7225 Fit       0.018771
 7226 Fit      -0.003012
 7227 Fit       0.002884
 7228 Fit       0.007519
 7229 Fit       0.011051
 7230 Fit       0.013696
 7231 Fit       0.015657
 7232 Fit       0.017089
 7233 Fit       0.000236
 7234 Fit       0.005232
 7235 Fit       0.009224
 7236 Fit       0.012181
 7237 Fit       0.014237
 7238 Fit       0.008335
 7239 Fit      -0.016987
 7240 Fit      -0.020159
 7241 Fit      -0.014636
 7242 Fit      -0.017593
 7243 Fit      -0.021850
 7244 Fit      -0.014023
 7245 Fit      -0.017632
 7246 Fit      -0.022684
 7247 Fit      -0.013711
 7248 Fit      -0.017784
 7249 Fit      -0.023352
 7250 Fit      -0.015503
 7251 Fit      -0.020772
 7252 Fit      -0.013392
 7253 Fit      -0.018134
 7254 Fit      -0.014592
 7255 Fit      -0.019751
 7256 Fit      -0.013604
 7257 Fit      -0.018425
 7258 Fit      -0.015960
 7259 Fit      -0.021440
 7260 Fit      -0.014235
 7261 Fit      -0.018524
 7262 Fit      -0.014604
 7263 Fit      -0.018478
 7264 Fit      -0.015208
 7265 Fit      -0.018454
 7266 Fit      -0.023160
 7267 Fit      -0.017694
 7268 Fit      -0.021239
 7269 Fit      -0.003791
 7270 Fit      -0.005111
 7271 Fit      -0.007367
 7272 Fit      -0.000434
 7273 Fit      -0.001111
 7274 Fit      -0.002332
 7275 Fit      -0.004164
 7276 Fit      -0.006747
 7277 Fit      -0.010263
 7278 Fit      -0.014883
 7279 Fit       0.002588
 7280 Fit       0.001875
 7281 Fit       0.000898
 7282 Fit      -0.000401
 7283 Fit      -0.002139
 7284 Fit      -0.004475
 7285 Fit      -0.007624
 7286 Fit      -0.011879
 7287 Fit       0.004625
 7288 Fit       0.003563
 7289 Fit       0.002437
 7290 Fit       0.001129
 7291 Fit      -0.000492
 7292 Fit      -0.002574
 7293 Fit      -0.005310
 7294 Fit      -0.008976
 7295 Fit      -0.013995
 7296 Fit       0.006828
 7297 Fit       0.005449
 7298 Fit       0.004211
 7299 Fit       0.002940
 7300 Fit       0.001488
 7301 Fit      -0.000294
 7302 Fit      -0.002572
 7303 Fit      -0.005574
 7304 Fit      -0.009646
 7305 Fit      -0.015373
 7306 Fit       0.008635
 7307 Fit       0.006941
 7308 Fit       0.005576
 7309 Fit       0.004312
 7310 Fit       0.002982
 7311 Fit       0.001443
 7312 Fit      -0.000448
 7313 Fit      -0.002867
 7314 Fit      -0.006057
 7315 Fit      -0.010411
 7316 Fit       0.009515
 7317 Fit       0.007662
 7318 Fit       0.006227
 7319 Fit       0.004956
 7320 Fit       0.003673
 7321 Fit       0.002235
 7322 Fit       0.000509
 7323 Fit      -0.001658
 7324 Fit      -0.004468
 7325 Fit      -0.008232
 7326 Fit      -0.013486
 7327 Fit       0.008965
 7328 Fit       0.007247
 7329 Fit       0.005873
 7330 Fit       0.004611
 7331 Fit       0.003293
 7332 Fit       0.001777
 7333 Fit      -0.000078
 7334 Fit      -0.002438
 7335 Fit      -0.005540
 7336 Fit      -0.009756
 7337 Fit       0.007468
 7338 Fit       0.006053
 7339 Fit       0.004806
 7340 Fit       0.003548
 7341 Fit       0.002131
 7342 Fit       0.000412
 7343 Fit      -0.001768
 7344 Fit      -0.004617
 7345 Fit      -0.008450
 7346 Fit      -0.013794
 7347 Fit       0.006739
 7348 Fit       0.005561
 7349 Fit       0.004464
 7350 Fit       0.003339
 7351 Fit       0.002066
 7352 Fit       0.000519
 7353 Fit      -0.001442
 7354 Fit      -0.003990
 7355 Fit      -0.007367
 7356 Fit      -0.011935
 7357 Fit       0.003866
 7358 Fit       0.003090
 7359 Fit       0.002107
 7360 Fit       0.000856
 7361 Fit      -0.000777
 7362 Fit      -0.002933
 7363 Fit      -0.005799
 7364 Fit      -0.009621
 7365 Fit      -0.014707
 7366 Fit       0.001106
 7367 Fit       0.000410
 7368 Fit      -0.000753
 7369 Fit      -0.002446
 7370 Fit      -0.004789
 7371 Fit      -0.007931
 7372 Fit      -0.012009
 7373 Fit      -0.001947
 7374 Fit      -0.003174
 7375 Fit      -0.005216
 7376 Fit      -0.008123
 7377 Fit       0.011612
 7378 Fit       0.009868
 7379 Fit       0.007658
 7380 Fit       0.017102
 7381 Fit       0.014681
 7382 Fit       0.012253
 7383 Fit       0.009928
 7384 Fit       0.007651
 7385 Fit       0.005303
 7386 Fit       0.022831
 7387 Fit       0.019238
 7388 Fit       0.016181
 7389 Fit       0.013586
 7390 Fit       0.011313
 7391 Fit       0.009232
 7392 Fit       0.007239
 7393 Fit       0.023691
 7394 Fit       0.019853
 7395 Fit       0.016847
 7396 Fit       0.014397
 7397 Fit       0.012314
 7398 Fit       0.010479
 7399 Fit       0.008828
 7400 Fit       0.007333
 7401 Fit       0.027140
 7402 Fit       0.022466
 7403 Fit       0.019009
 7404 Fit       0.016320
 7405 Fit       0.014129
 7406 Fit       0.012280
 7407 Fit       0.010703
 7408 Fit       0.009394
 7409 Fit       0.008430
 7410 Fit       0.024450
 7411 Fit       0.020676
 7412 Fit       0.017812
 7413 Fit       0.015530
 7414 Fit       0.013647
 7415 Fit       0.012072
 7416 Fit       0.010791
 7417 Fit       0.009880
 7418 Fit       0.025246
 7419 Fit       0.021384
 7420 Fit       0.018468
 7421 Fit       0.016160
 7422 Fit       0.014266
 7423 Fit       0.012690
 7424 Fit       0.011408
 7425 Fit       0.010481
 7426 Fit       0.029501
 7427 Fit       0.024412
 7428 Fit       0.020730
 7429 Fit       0.017922
 7430 Fit       0.015681
 7431 Fit       0.013830
 7432 Fit       0.012286
 7433 Fit       0.011040
 7434 Fit       0.010170
 7435 Fit       0.026889
 7436 Fit       0.022475
 7437 Fit       0.019169
 7438 Fit       0.016578
 7439 Fit       0.014460
 7440 Fit       0.012676
 7441 Fit       0.011164
 7442 Fit       0.009931
 7443 Fit       0.009066
 7444 Fit       0.023567
 7445 Fit       0.020004
 7446 Fit       0.017171
 7447 Fit       0.014843
 7448 Fit       0.012859
 7449 Fit       0.011119
 7450 Fit       0.009573
 7451 Fit       0.008207
 7452 Fit       0.022666
 7453 Fit       0.019417
 7454 Fit       0.016595
 7455 Fit       0.014168
 7456 Fit       0.012031
 7457 Fit       0.010080
 7458 Fit       0.008232
 7459 Fit       0.006398
 7460 Fit       0.017423
 7461 Fit       0.015225
 7462 Fit       0.012984
 7463 Fit       0.010822
 7464 Fit       0.008706
 7465 Fit       0.006542
 7466 Fit       0.012410
 7467 Fit       0.010813
 7468 Fit       0.008774
 7469 Fit       0.006462
 7470 Fit       0.019280
 7471 Fit       0.023615
 7472 Fit       0.022306
 7473 Fit       0.020618
 7474 Fit       0.018201
 7475 Fit       0.026908
 7476 Fit       0.025747
 7477 Fit       0.024625
 7478 Fit       0.023317
 7479 Fit       0.028282
 7480 Fit       0.027384
 7481 Fit       0.026585
 7482 Fit       0.025793
 7483 Fit       0.029785
 7484 Fit       0.029009
 7485 Fit       0.028436
 7486 Fit       0.028045
 7487 Fit       0.030569
 7488 Fit       0.029940
 7489 Fit       0.029513
 7490 Fit       0.029308
 7491 Fit       0.030627
 7492 Fit       0.030179
 7493 Fit       0.029867
 7494 Fit       0.029751
 7495 Fit       0.030110
 7496 Fit       0.029808
 7497 Fit       0.029576
 7498 Fit       0.029522
 7499 Fit       0.029408
 7500 Fit       0.029203
 7501 Fit       0.028937
 7502 Fit       0.028690
 7503 Fit       0.028581
 7504 Fit       0.028152
 7505 Fit       0.027900
 7506 Fit       0.027550
 7507 Fit       0.027139
 7508 Fit       0.026753
 7509 Fit       0.026422
 7510 Fit       0.025960
 7511 Fit       0.025309
 7512 Fit       0.024403
 7513 Fit       0.024595
 7514 Fit       0.024023
 7515 Fit       0.023178
 7516 Fit       0.021879
 7517 Fit       0.021583
 7518 Fit       0.020536
 7519 Fit       0.018750
 7520 Fit       0.010585
 7521 Fit       0.011563
 7522 Fit       0.012569
 7523 Fit       0.013647
 7524 Fit       0.014848
 7525 Fit       0.016240
 7526 Fit       0.017910
 7527 Fit       0.009600
 7528 Fit       0.010548
 7529 Fit       0.011542
 7530 Fit       0.012534
 7531 Fit       0.013566
 7532 Fit       0.014684
 7533 Fit       0.015941
 7534 Fit       0.017395
 7535 Fit       0.019093
 7536 Fit       0.021027
 7537 Fit       0.023028
 7538 Fit       0.005674
 7539 Fit       0.007143
 7540 Fit       0.008397
 7541 Fit       0.009514
 7542 Fit       0.010550
 7543 Fit       0.011539
 7544 Fit       0.012498
 7545 Fit       0.013464
 7546 Fit       0.014470
 7547 Fit       0.015546
 7548 Fit       0.016705
 7549 Fit       0.017911
 7550 Fit       0.019023
 7551 Fit       0.019704
 7552 Fit       0.019357
 7553 Fit       0.001507
 7554 Fit       0.003687
 7555 Fit       0.005503
 7556 Fit       0.007029
 7557 Fit       0.008340
 7558 Fit       0.009498
 7559 Fit       0.010536
 7560 Fit       0.011560
 7561 Fit       0.012525
 7562 Fit       0.013458
 7563 Fit       0.014377
 7564 Fit       0.015273
 7565 Fit       0.016078
 7566 Fit       0.016623
 7567 Fit       0.016585
 7568 Fit       0.015544
 7569 Fit      -0.004855
 7570 Fit      -0.003414
 7571 Fit      -0.001285
 7572 Fit       0.001006
 7573 Fit       0.003166
 7574 Fit       0.005079
 7575 Fit       0.006735
 7576 Fit       0.008165
 7577 Fit       0.009417
 7578 Fit       0.010459
 7579 Fit       0.011496
 7580 Fit       0.012429
 7581 Fit       0.013269
 7582 Fit       0.013993
 7583 Fit       0.014520
 7584 Fit       0.014676
 7585 Fit       0.014201
 7586 Fit       0.012864
 7587 Fit       0.010723
 7588 Fit       0.008231
 7589 Fit       0.005848
 7590 Fit      -0.000188
 7591 Fit      -0.000759
 7592 Fit      -0.000170
 7593 Fit       0.001231
 7594 Fit       0.002995
 7595 Fit       0.004799
 7596 Fit       0.006478
 7597 Fit       0.007976
 7598 Fit       0.009295
 7599 Fit       0.010281
 7600 Fit       0.011341
 7601 Fit       0.012212
 7602 Fit       0.012853
 7603 Fit       0.013152
 7604 Fit       0.012912
 7605 Fit       0.011931
 7606 Fit       0.010216
 7607 Fit       0.008102
 7608 Fit       0.005986
 7609 Fit       0.004117
 7610 Fit       0.002833
 7611 Fit       0.002512
 7612 Fit       0.003180
 7613 Fit       0.004497
 7614 Fit       0.006067
 7615 Fit       0.007623
 7616 Fit       0.009041
 7617 Fit       0.009976
 7618 Fit       0.011062
 7619 Fit       0.011705
 7620 Fit       0.011691
 7621 Fit       0.010792
 7622 Fit       0.009088
 7623 Fit       0.007126
 7624 Fit       0.005585
 7625 Fit       0.005053
 7626 Fit       0.005682
 7627 Fit       0.007038
 7628 Fit       0.008580
 7629 Fit       0.009520
 7630 Fit       0.010401
 7631 Fit       0.009816
 7632 Fit       0.008101
 7633 Fit       0.007142
 7634 Fit       0.007981
 7635 Fit       0.008898
 7636 Fit       0.009799
 7637 Fit       0.010112
 7638 Fit       0.011283
 7639 Fit       0.011077
 7640 Fit       0.009465
 7641 Fit       0.008733
 7642 Fit       0.010408
 7643 Fit       0.011693
 7644 Fit       0.012727
 7645 Fit       0.013182
 7646 Fit       0.012635
 7647 Fit       0.011002
 7648 Fit       0.009074
 7649 Fit       0.009090
 7650 Fit       0.010683
 7651 Fit       0.011875
 7652 Fit       0.013039
 7653 Fit       0.014091
 7654 Fit       0.014895
 7655 Fit       0.015201
 7656 Fit       0.014638
 7657 Fit       0.012946
 7658 Fit       0.009522
 7659 Fit       0.010931
 7660 Fit       0.012051
 7661 Fit       0.013211
 7662 Fit       0.014382
 7663 Fit       0.015532
 7664 Fit       0.016599
 7665 Fit       0.017435
 7666 Fit       0.017726
 7667 Fit       0.016959
 7668 Fit       0.009885
 7669 Fit       0.011150
 7670 Fit       0.012210
 7671 Fit       0.013347
 7672 Fit       0.014546
 7673 Fit       0.015806
 7674 Fit       0.017134
 7675 Fit       0.018521
 7676 Fit       0.019888
 7677 Fit       0.020991
 7678 Fit       0.021265
 7679 Fit       0.010202
 7680 Fit       0.011346
 7681 Fit       0.012321
 7682 Fit       0.013393
 7683 Fit       0.014552
 7684 Fit       0.015807
 7685 Fit       0.017186
 7686 Fit       0.018732
 7687 Fit       0.020492
 7688 Fit       0.022486
 7689 Fit       0.024622
 7690 Fit       0.011528
 7691 Fit       0.012463
 7692 Fit       0.013519
 7693 Fit       0.014684
 7694 Fit       0.015975
 7695 Fit       0.017431
 7696 Fit       0.019124
 7697 Fit       0.021157
 7698 Fit       0.023670
 7699 Fit       0.026816
 7700 Fit       0.012592
 7701 Fit       0.013600
 7702 Fit       0.014734
 7703 Fit       0.016010
 7704 Fit       0.017474
 7705 Fit       0.019206
 7706 Fit       0.021333
 7707 Fit       0.024055
 7708 Fit       0.027670
 7709 Fit       0.012768
 7710 Fit       0.013737
 7711 Fit       0.014847
 7712 Fit       0.016119
 7713 Fit       0.017604
 7714 Fit       0.019390
 7715 Fit       0.021625
 7716 Fit       0.024546
 7717 Fit       0.028548
 7718 Fit       0.014028
 7719 Fit       0.015165
 7720 Fit       0.016505
 7721 Fit       0.018115
 7722 Fit       0.020112
 7723 Fit       0.022698
 7724 Fit       0.026211
 7725 Fit       0.015665
 7726 Fit       0.017107
 7727 Fit       0.018906
 7728 Fit       0.021227
 7729 Fit       0.024356
 7730 Fit       0.028797
 7731 Fit       0.017833
 7732 Fit       0.019788
 7733 Fit       0.022393
 7734 Fit       0.026000
 7735 Fit       0.004134
 7736 Fit       0.000066
 7737 Fit       0.001907
 7738 Fit       0.005179
 7739 Fit      -0.003307
 7740 Fit      -0.001207
 7741 Fit       0.001325
 7742 Fit       0.003493
 7743 Fit       0.006034
 7744 Fit      -0.007422
 7745 Fit      -0.004607
 7746 Fit      -0.001621
 7747 Fit       0.000987
 7748 Fit       0.003076
 7749 Fit       0.004706
 7750 Fit       0.006717
 7751 Fit      -0.009733
 7752 Fit      -0.005802
 7753 Fit      -0.002390
 7754 Fit       0.000383
 7755 Fit       0.002558
 7756 Fit       0.004244
 7757 Fit       0.005578
 7758 Fit       0.007242
 7759 Fit       0.008294
 7760 Fit      -0.012567
 7761 Fit      -0.007676
 7762 Fit      -0.003736
 7763 Fit      -0.000639
 7764 Fit       0.001763
 7765 Fit       0.003615
 7766 Fit       0.005055
 7767 Fit       0.006216
 7768 Fit       0.007624
 7769 Fit       0.008598
 7770 Fit      -0.015000
 7771 Fit      -0.009386
 7772 Fit      -0.005050
 7773 Fit      -0.001702
 7774 Fit       0.000885
 7775 Fit       0.002887
 7776 Fit       0.004442
 7777 Fit       0.005674
 7778 Fit       0.006695
 7779 Fit       0.007881
 7780 Fit      -0.013954
 7781 Fit      -0.008358
 7782 Fit      -0.004160
 7783 Fit      -0.000971
 7784 Fit       0.001472
 7785 Fit       0.003356
 7786 Fit       0.004823
 7787 Fit       0.005992
 7788 Fit       0.006973
 7789 Fit       0.008032
 7790 Fit      -0.019244
 7791 Fit      -0.012200
 7792 Fit      -0.007061
 7793 Fit      -0.003218
 7794 Fit      -0.000295
 7795 Fit       0.001953
 7796 Fit       0.003699
 7797 Fit       0.005073
 7798 Fit       0.006185
 7799 Fit       0.007137
 7800 Fit       0.008102
 7801 Fit      -0.018382
 7802 Fit      -0.011585
 7803 Fit      -0.006641
 7804 Fit      -0.002944
 7805 Fit      -0.000126
 7806 Fit       0.002051
 7807 Fit       0.003752
 7808 Fit       0.005104
 7809 Fit       0.006214
 7810 Fit       0.007181
 7811 Fit      -0.013526
 7812 Fit      -0.007986
 7813 Fit      -0.003905
 7814 Fit      -0.000826
 7815 Fit       0.001537
 7816 Fit       0.003377
 7817 Fit       0.004841
 7818 Fit       0.006048
 7819 Fit       0.007105
 7820 Fit      -0.016978
 7821 Fit      -0.010379
 7822 Fit      -0.005609
 7823 Fit      -0.002060
 7824 Fit       0.000637
 7825 Fit       0.002726
 7826 Fit       0.004385
 7827 Fit       0.005754
 7828 Fit       0.006964
 7829 Fit      -0.012556
 7830 Fit      -0.007256
 7831 Fit      -0.003312
 7832 Fit      -0.000311
 7833 Fit       0.002020
 7834 Fit       0.003882
 7835 Fit       0.005437
 7836 Fit      -0.011032
 7837 Fit      -0.006029
 7838 Fit      -0.002241
 7839 Fit       0.000679
 7840 Fit       0.002995
 -----------------------------------------------------------------
 Leave Link  602 at Thu Jun 16 12:19:09 2016, MaxMem=   33554432 cpu:       2.9

 Test job not archived.
 1\1\GINC-NODE37\FOpt\RHF\6-31G(d)\C10H11N3O1S1\DAVE\16-Jun-2016\0\\#HF
 /6-31G* SCF=tight Test Pop=MK iop(6/33=2) iop(6/42=6) opt\\remark line
  goes here\\0,1\C,1.0639299716,6.8533081379,13.0206123263\C,-0.2823904
 855,6.8839092864,13.7157518015\O,-0.5250643498,6.1714369923,14.6481411
 593\N,-1.1701321561,7.7583300827,13.1673007037\C,-2.5139578949,8.00242
 02195,13.5239330888\C,-3.2111192229,8.9360392745,12.7475469868\C,-4.52
 53982273,9.2543701705,13.0063274096\C,-5.1789248026,8.6350930653,14.06
 47069918\C,-4.4717728476,7.7114984516,14.8263566895\C,-3.1496810655,7.
 3750776346,14.5836557039\S,-5.5289498377,7.0908213429,16.0813037659\C,
 -6.8035283435,8.1403747338,15.4472929603\N,-6.4954983313,8.8508937743,
 14.4354727779\N,-8.0169673642,8.1910760807,16.0532993268\C,-8.52502161
 08,7.1402962406,16.9076510643\H,-8.6409328099,6.1906094503,16.39158568
 37\H,-7.869884808,6.9961016297,17.7579457585\H,-9.489213271,7.44989793
 32,17.2861545452\H,-8.6849417275,8.6996899666,15.516180764\H,-2.631892
 906,6.6600985175,15.1857471772\H,-5.0482413672,9.9723641936,12.4024383
 848\H,-2.7078902977,9.4180225993,11.9265528092\H,-0.842148261,8.289245
 6196,12.3935873131\H,1.0021665465,6.2093743541,12.1485518703\H,1.38545
 95312,7.8366072502,12.6955410937\H,1.7939959385,6.4410429984,13.701361
 844\\Version=EM64L-G09RevC.01\State=1-A\HF=-1020.8354514\RMSD=3.430e-0
 9\RMSF=3.416e-06\Dipole=-0.1813167,0.3275938,-0.7614503\Quadrupole=12.
 1424423,-11.1399568,-1.0024854,6.8100181,-15.2375514,-2.5114526\PG=C01
  [X(C10H11N3O1S1)]\\@


 THE MOST SERIOUS THREAT TO THE SURVIVAL OF MANKIND IS NOT NOW
 IGNORANCE IN THE TRADITIONAL SENSE,
 BUT A MORALLY NEUTRAL, AN INSENSITIVE OR INHIBITED HUMAN INTELLIGENCE.

                     -- MARGO JEFFERSON IN NEWSWEEK, SEPTEMBER 2, 1974
 Job cpu time:  0 days  1 hours 12 minutes 35.9 seconds.
 File lengths (MBytes):  RWF=     51 Int=      0 D2E=      0 Chk=      6 Scr=      1
 Normal termination of Gaussian 09 at Thu Jun 16 12:19:09 2016.
