 Entering Gaussian System, Link 0=/usr/local/g09_c01/g09
 Initial command:
 /usr/local/g09_c01/l1.exe /scr/gf/dave/80794/Gau-23387.inp -scrdir=/scr/gf/dave/80794/
 Entering Link 1 = /usr/local/g09_c01/l1.exe PID=     23389.
  
 Copyright (c) 1988,1990,1992,1993,1995,1998,2003,2009,2011,
            Gaussian, Inc.  All Rights Reserved.
  
 This is part of the Gaussian(R) 09 program.  It is based on
 the Gaussian(R) 03 system (copyright 2003, Gaussian, Inc.),
 the Gaussian(R) 98 system (copyright 1998, Gaussian, Inc.),
 the Gaussian(R) 94 system (copyright 1995, Gaussian, Inc.),
 the Gaussian 92(TM) system (copyright 1992, Gaussian, Inc.),
 the Gaussian 90(TM) system (copyright 1990, Gaussian, Inc.),
 the Gaussian 88(TM) system (copyright 1988, Gaussian, Inc.),
 the Gaussian 86(TM) system (copyright 1986, Carnegie Mellon
 University), and the Gaussian 82(TM) system (copyright 1983,
 Carnegie Mellon University). Gaussian is a federally registered
 trademark of Gaussian, Inc.
  
 This software contains proprietary and confidential information,
 including trade secrets, belonging to Gaussian, Inc.
  
 This software is provided under written license and may be
 used, copied, transmitted, or stored only in accord with that
 written license.
  
 The following legend is applicable only to US Government
 contracts under FAR:
  
                    RESTRICTED RIGHTS LEGEND
  
 Use, reproduction and disclosure by the US Government is
 subject to restrictions as set forth in subparagraphs (a)
 and (c) of the Commercial Computer Software - Restricted
 Rights clause in FAR 52.227-19.
  
 Gaussian, Inc.
 340 Quinnipiac St., Bldg. 40, Wallingford CT 06492
  
  
 ---------------------------------------------------------------
 Warning -- This program may not be used in any manner that
 competes with the business of Gaussian, Inc. or will provide
 assistance to any competitor of Gaussian, Inc.  The licensee
 of this program is prohibited from giving any competitor of
 Gaussian, Inc. access to this program.  By using this program,
 the user acknowledges that Gaussian, Inc. is engaged in the
 business of creating and licensing software in the field of
 computational chemistry and represents and warrants to the
 licensee that it is not a competitor of Gaussian, Inc. and that
 it will not use this program in any manner prohibited above.
 ---------------------------------------------------------------
  

 Cite this work as:
 Gaussian 09, Revision C.01,
 M. J. Frisch, G. W. Trucks, H. B. Schlegel, G. E. Scuseria, 
 M. A. Robb, J. R. Cheeseman, G. Scalmani, V. Barone, B. Mennucci, 
 G. A. Petersson, H. Nakatsuji, M. Caricato, X. Li, H. P. Hratchian, 
 A. F. Izmaylov, J. Bloino, G. Zheng, J. L. Sonnenberg, M. Hada, 
 M. Ehara, K. Toyota, R. Fukuda, J. Hasegawa, M. Ishida, T. Nakajima, 
 Y. Honda, O. Kitao, H. Nakai, T. Vreven, J. A. Montgomery, Jr., 
 J. E. Peralta, F. Ogliaro, M. Bearpark, J. J. Heyd, E. Brothers, 
 K. N. Kudin, V. N. Staroverov, T. Keith, R. Kobayashi, J. Normand, 
 K. Raghavachari, A. Rendell, J. C. Burant, S. S. Iyengar, J. Tomasi, 
 M. Cossi, N. Rega, J. M. Millam, M. Klene, J. E. Knox, J. B. Cross, 
 V. Bakken, C. Adamo, J. Jaramillo, R. Gomperts, R. E. Stratmann, 
 O. Yazyev, A. J. Austin, R. Cammi, C. Pomelli, J. W. Ochterski, 
 R. L. Martin, K. Morokuma, V. G. Zakrzewski, G. A. Voth, 
 P. Salvador, J. J. Dannenberg, S. Dapprich, A. D. Daniels, 
 O. Farkas, J. B. Foresman, J. V. Ortiz, J. Cioslowski, 
 and D. J. Fox, Gaussian, Inc., Wallingford CT, 2010.
 
 ******************************************
 Gaussian 09:  EM64L-G09RevC.01 23-Sep-2011
                16-Jun-2016 
 ******************************************
 %chk=molecule
 ------------------------------------------------------------
 #HF/6-31G* SCF=tight Test Pop=MK iop(6/33=2) iop(6/42=6) opt
 ------------------------------------------------------------
 1/18=20,19=15,38=1/1,3;
 2/9=110,12=2,17=6,18=5,40=1/2;
 3/5=1,6=6,7=1,11=9,16=1,25=1,30=1,71=1/1,2,3;
 4//1;
 5/5=2,32=2,38=5/2;
 6/7=2,8=2,9=2,10=2,15=8,20=1,28=1,33=2,42=6/1,2;
 7//1,2,3,16;
 1/18=20,19=15/3(2);
 2/9=110/2;
 99//99;
 2/9=110/2;
 3/5=1,6=6,7=1,11=9,16=1,25=1,30=1,71=1/1,2,3;
 4/5=5,16=3/1;
 5/5=2,32=2,38=5/2;
 7//1,2,3,16;
 1/18=20,19=15/3(-5);
 2/9=110/2;
 6/7=2,8=2,9=2,10=2,15=8,19=2,20=1,28=1,33=2,42=6/1,2;
 99/9=1/99;
 ---------------------
 remark line goes here
 ---------------------
 Charge =  0 Multiplicity = 1
 Symbolic Z-Matrix:
 C                    -4.705     9.364     12.96 
 C                    -3.333     9.205     12.836 
 C                    -3.292     7.729     14.756 
 C                    -5.385     8.722     14.001 
 C                    -2.625     8.376     13.717 
 C                    -4.658     7.917     14.887 
 C                    -7.045     8.119     15.355 
 C                    -0.518     7.052     13.719 
 C                     2.026     4.137     12.434 
 C                    -8.444     8.035     15.893 
 C                     0.922     7.163     13.248 
 C                     1.845     6.14      13.871 
 N                    -6.745     8.822     14.285 
 N                     1.512     2.929     12.137 
 N                    -1.23      8.188     13.556 
 N                     1.482     4.773     13.476 
 O                    -0.993     6.005     14.195 
 O                     2.95      4.647     11.769 
 S                    -5.713     7.265     16.094 
 H                     0.79      4.292     14.016 
 H                    -0.708     8.998     13.288 
 H                     0.764     2.556     12.686 
 H                     1.877     2.405     11.368 
 H                     2.876     6.343     13.546 
 H                     1.783     6.223     14.966 
 H                     0.942     7.03      12.156 
 H                     1.294     8.167     13.502 
 H                    -8.782     6.988     15.871 
 H                    -8.461     8.404     16.929 
 H                    -9.113     8.649     15.273 
 H                    -2.753     7.091     15.447 
 H                    -2.801     9.728     12.05 
 H                    -5.248     9.982     12.254 
 

 GradGradGradGradGradGradGradGradGradGradGradGradGradGradGradGradGradGrad
 Berny optimization.
 Initialization pass.
                           ----------------------------
                           !    Initial Parameters    !
                           ! (Angstroms and Degrees)  !
 --------------------------                            --------------------------
 ! Name  Definition              Value          Derivative Info.                !
 --------------------------------------------------------------------------------
 ! R1    R(1,2)                  1.3867         estimate D2E/DX2                !
 ! R2    R(1,4)                  1.3994         estimate D2E/DX2                !
 ! R3    R(1,33)                 1.0841         estimate D2E/DX2                !
 ! R4    R(2,5)                  1.4017         estimate D2E/DX2                !
 ! R5    R(2,32)                 1.0837         estimate D2E/DX2                !
 ! R6    R(3,5)                  1.3939         estimate D2E/DX2                !
 ! R7    R(3,6)                  1.3851         estimate D2E/DX2                !
 ! R8    R(3,31)                 1.084          estimate D2E/DX2                !
 ! R9    R(4,6)                  1.4006         estimate D2E/DX2                !
 ! R10   R(4,13)                 1.3929         estimate D2E/DX2                !
 ! R11   R(5,15)                 1.4168         estimate D2E/DX2                !
 ! R12   R(6,19)                 1.7306         estimate D2E/DX2                !
 ! R13   R(7,10)                 1.5012         estimate D2E/DX2                !
 ! R14   R(7,13)                 1.315          estimate D2E/DX2                !
 ! R15   R(7,19)                 1.7463         estimate D2E/DX2                !
 ! R16   R(8,11)                 1.5191         estimate D2E/DX2                !
 ! R17   R(8,15)                 1.3506         estimate D2E/DX2                !
 ! R18   R(8,17)                 1.2444         estimate D2E/DX2                !
 ! R19   R(9,14)                 1.346          estimate D2E/DX2                !
 ! R20   R(9,16)                 1.3365         estimate D2E/DX2                !
 ! R21   R(9,18)                 1.2474         estimate D2E/DX2                !
 ! R22   R(10,28)                1.1004         estimate D2E/DX2                !
 ! R23   R(10,29)                1.0999         estimate D2E/DX2                !
 ! R24   R(10,30)                1.0995         estimate D2E/DX2                !
 ! R25   R(11,12)                1.5121         estimate D2E/DX2                !
 ! R26   R(11,26)                1.1003         estimate D2E/DX2                !
 ! R27   R(11,27)                1.1004         estimate D2E/DX2                !
 ! R28   R(12,16)                1.4685         estimate D2E/DX2                !
 ! R29   R(12,24)                1.0999         estimate D2E/DX2                !
 ! R30   R(12,25)                1.0999         estimate D2E/DX2                !
 ! R31   R(14,22)                1.0            estimate D2E/DX2                !
 ! R32   R(14,23)                0.9996         estimate D2E/DX2                !
 ! R33   R(15,21)                1.0002         estimate D2E/DX2                !
 ! R34   R(16,20)                1.0009         estimate D2E/DX2                !
 ! A1    A(2,1,4)              119.6489         estimate D2E/DX2                !
 ! A2    A(2,1,33)             120.1785         estimate D2E/DX2                !
 ! A3    A(4,1,33)             120.1725         estimate D2E/DX2                !
 ! A4    A(1,2,5)              120.7542         estimate D2E/DX2                !
 ! A5    A(1,2,32)             119.6846         estimate D2E/DX2                !
 ! A6    A(5,2,32)             119.5612         estimate D2E/DX2                !
 ! A7    A(5,3,6)              118.6468         estimate D2E/DX2                !
 ! A8    A(5,3,31)             120.6907         estimate D2E/DX2                !
 ! A9    A(6,3,31)             120.6625         estimate D2E/DX2                !
 ! A10   A(1,4,6)              118.8196         estimate D2E/DX2                !
 ! A11   A(1,4,13)             126.383          estimate D2E/DX2                !
 ! A12   A(6,4,13)             114.7773         estimate D2E/DX2                !
 ! A13   A(2,5,3)              120.0874         estimate D2E/DX2                !
 ! A14   A(2,5,15)             120.2916         estimate D2E/DX2                !
 ! A15   A(3,5,15)             119.6209         estimate D2E/DX2                !
 ! A16   A(3,6,4)              122.013          estimate D2E/DX2                !
 ! A17   A(3,6,19)             128.0277         estimate D2E/DX2                !
 ! A18   A(4,6,19)             109.957          estimate D2E/DX2                !
 ! A19   A(10,7,13)            122.2853         estimate D2E/DX2                !
 ! A20   A(10,7,19)            122.1261         estimate D2E/DX2                !
 ! A21   A(13,7,19)            115.5799         estimate D2E/DX2                !
 ! A22   A(11,8,15)            113.6312         estimate D2E/DX2                !
 ! A23   A(11,8,17)            122.8146         estimate D2E/DX2                !
 ! A24   A(15,8,17)            123.5495         estimate D2E/DX2                !
 ! A25   A(14,9,16)            116.3395         estimate D2E/DX2                !
 ! A26   A(14,9,18)            122.1515         estimate D2E/DX2                !
 ! A27   A(16,9,18)            121.505          estimate D2E/DX2                !
 ! A28   A(7,10,28)            109.409          estimate D2E/DX2                !
 ! A29   A(7,10,29)            109.4624         estimate D2E/DX2                !
 ! A30   A(7,10,30)            109.4926         estimate D2E/DX2                !
 ! A31   A(28,10,29)           109.4683         estimate D2E/DX2                !
 ! A32   A(28,10,30)           109.4602         estimate D2E/DX2                !
 ! A33   A(29,10,30)           109.5347         estimate D2E/DX2                !
 ! A34   A(8,11,12)            113.6673         estimate D2E/DX2                !
 ! A35   A(8,11,26)            108.4283         estimate D2E/DX2                !
 ! A36   A(8,11,27)            108.3937         estimate D2E/DX2                !
 ! A37   A(12,11,26)           108.4232         estimate D2E/DX2                !
 ! A38   A(12,11,27)           108.4093         estimate D2E/DX2                !
 ! A39   A(26,11,27)           109.4653         estimate D2E/DX2                !
 ! A40   A(11,12,16)           111.596          estimate D2E/DX2                !
 ! A41   A(11,12,24)           108.9992         estimate D2E/DX2                !
 ! A42   A(11,12,25)           108.9478         estimate D2E/DX2                !
 ! A43   A(16,12,24)           108.9069         estimate D2E/DX2                !
 ! A44   A(16,12,25)           108.911          estimate D2E/DX2                !
 ! A45   A(24,12,25)           109.4556         estimate D2E/DX2                !
 ! A46   A(4,13,7)             110.5042         estimate D2E/DX2                !
 ! A47   A(9,14,22)            119.9509         estimate D2E/DX2                !
 ! A48   A(9,14,23)            120.0524         estimate D2E/DX2                !
 ! A49   A(22,14,23)           119.9967         estimate D2E/DX2                !
 ! A50   A(5,15,8)             128.096          estimate D2E/DX2                !
 ! A51   A(5,15,21)            115.9034         estimate D2E/DX2                !
 ! A52   A(8,15,21)            116.0006         estimate D2E/DX2                !
 ! A53   A(9,16,12)            123.5099         estimate D2E/DX2                !
 ! A54   A(9,16,20)            118.2524         estimate D2E/DX2                !
 ! A55   A(12,16,20)           118.2376         estimate D2E/DX2                !
 ! A56   A(6,19,7)              89.1749         estimate D2E/DX2                !
 ! D1    D(4,1,2,5)              1.9552         estimate D2E/DX2                !
 ! D2    D(4,1,2,32)          -177.9797         estimate D2E/DX2                !
 ! D3    D(33,1,2,5)          -178.0177         estimate D2E/DX2                !
 ! D4    D(33,1,2,32)            2.0474         estimate D2E/DX2                !
 ! D5    D(2,1,4,6)             -0.7601         estimate D2E/DX2                !
 ! D6    D(2,1,4,13)           177.5186         estimate D2E/DX2                !
 ! D7    D(33,1,4,6)           179.2128         estimate D2E/DX2                !
 ! D8    D(33,1,4,13)           -2.5085         estimate D2E/DX2                !
 ! D9    D(1,2,5,3)             -1.8186         estimate D2E/DX2                !
 ! D10   D(1,2,5,15)           178.0389         estimate D2E/DX2                !
 ! D11   D(32,2,5,3)           178.1164         estimate D2E/DX2                !
 ! D12   D(32,2,5,15)           -2.0261         estimate D2E/DX2                !
 ! D13   D(6,3,5,2)              0.4666         estimate D2E/DX2                !
 ! D14   D(6,3,5,15)          -179.3918         estimate D2E/DX2                !
 ! D15   D(31,3,5,2)          -179.5851         estimate D2E/DX2                !
 ! D16   D(31,3,5,15)            0.5565         estimate D2E/DX2                !
 ! D17   D(5,3,6,4)              0.7289         estimate D2E/DX2                !
 ! D18   D(5,3,6,19)          -178.6551         estimate D2E/DX2                !
 ! D19   D(31,3,6,4)          -179.2194         estimate D2E/DX2                !
 ! D20   D(31,3,6,19)            1.3966         estimate D2E/DX2                !
 ! D21   D(1,4,6,3)             -0.5875         estimate D2E/DX2                !
 ! D22   D(1,4,6,19)           178.8962         estimate D2E/DX2                !
 ! D23   D(13,4,6,3)          -179.0613         estimate D2E/DX2                !
 ! D24   D(13,4,6,19)            0.4224         estimate D2E/DX2                !
 ! D25   D(1,4,13,7)          -178.175          estimate D2E/DX2                !
 ! D26   D(6,4,13,7)             0.1641         estimate D2E/DX2                !
 ! D27   D(2,5,15,8)          -141.0439         estimate D2E/DX2                !
 ! D28   D(2,5,15,21)           38.9422         estimate D2E/DX2                !
 ! D29   D(3,5,15,8)            38.8142         estimate D2E/DX2                !
 ! D30   D(3,5,15,21)         -141.1997         estimate D2E/DX2                !
 ! D31   D(3,6,19,7)           178.7966         estimate D2E/DX2                !
 ! D32   D(4,6,19,7)            -0.6477         estimate D2E/DX2                !
 ! D33   D(13,7,10,28)         118.8692         estimate D2E/DX2                !
 ! D34   D(13,7,10,29)        -121.1778         estimate D2E/DX2                !
 ! D35   D(13,7,10,30)          -1.0923         estimate D2E/DX2                !
 ! D36   D(19,7,10,28)         -60.0095         estimate D2E/DX2                !
 ! D37   D(19,7,10,29)          59.9435         estimate D2E/DX2                !
 ! D38   D(19,7,10,30)        -179.971          estimate D2E/DX2                !
 ! D39   D(10,7,13,4)         -179.6428         estimate D2E/DX2                !
 ! D40   D(19,7,13,4)           -0.6956         estimate D2E/DX2                !
 ! D41   D(10,7,19,6)          179.753          estimate D2E/DX2                !
 ! D42   D(13,7,19,6)            0.8039         estimate D2E/DX2                !
 ! D43   D(15,8,11,12)         158.3046         estimate D2E/DX2                !
 ! D44   D(15,8,11,26)         -81.0485         estimate D2E/DX2                !
 ! D45   D(15,8,11,27)          37.6997         estimate D2E/DX2                !
 ! D46   D(17,8,11,12)         -22.4575         estimate D2E/DX2                !
 ! D47   D(17,8,11,26)          98.1895         estimate D2E/DX2                !
 ! D48   D(17,8,11,27)        -143.0623         estimate D2E/DX2                !
 ! D49   D(11,8,15,5)          170.7218         estimate D2E/DX2                !
 ! D50   D(11,8,15,21)          -9.2642         estimate D2E/DX2                !
 ! D51   D(17,8,15,5)           -8.5097         estimate D2E/DX2                !
 ! D52   D(17,8,15,21)         171.5042         estimate D2E/DX2                !
 ! D53   D(16,9,14,22)          -0.0017         estimate D2E/DX2                !
 ! D54   D(16,9,14,23)         179.9615         estimate D2E/DX2                !
 ! D55   D(18,9,14,22)        -179.2812         estimate D2E/DX2                !
 ! D56   D(18,9,14,23)           0.6821         estimate D2E/DX2                !
 ! D57   D(14,9,16,12)        -174.8858         estimate D2E/DX2                !
 ! D58   D(14,9,16,20)           5.1016         estimate D2E/DX2                !
 ! D59   D(18,9,16,12)           4.3987         estimate D2E/DX2                !
 ! D60   D(18,9,16,20)        -175.6139         estimate D2E/DX2                !
 ! D61   D(8,11,12,16)          64.4954         estimate D2E/DX2                !
 ! D62   D(8,11,12,24)        -175.182          estimate D2E/DX2                !
 ! D63   D(8,11,12,25)         -55.7985         estimate D2E/DX2                !
 ! D64   D(26,11,12,16)        -56.1545         estimate D2E/DX2                !
 ! D65   D(26,11,12,24)         64.1682         estimate D2E/DX2                !
 ! D66   D(26,11,12,25)       -176.4483         estimate D2E/DX2                !
 ! D67   D(27,11,12,16)       -174.9085         estimate D2E/DX2                !
 ! D68   D(27,11,12,24)        -54.5859         estimate D2E/DX2                !
 ! D69   D(27,11,12,25)         64.7976         estimate D2E/DX2                !
 ! D70   D(11,12,16,9)          93.3999         estimate D2E/DX2                !
 ! D71   D(11,12,16,20)        -86.5875         estimate D2E/DX2                !
 ! D72   D(24,12,16,9)         -26.9769         estimate D2E/DX2                !
 ! D73   D(24,12,16,20)        153.0357         estimate D2E/DX2                !
 ! D74   D(25,12,16,9)        -146.2847         estimate D2E/DX2                !
 ! D75   D(25,12,16,20)         33.7279         estimate D2E/DX2                !
 --------------------------------------------------------------------------------
 Trust Radius=3.00D-01 FncErr=1.00D-07 GrdErr=1.00D-07
 Number of steps in this run=    175 maximum allowed number of steps=    198.
 GradGradGradGradGradGradGradGradGradGradGradGradGradGradGradGradGradGrad

                          Input orientation:                          
 ---------------------------------------------------------------------
 Center     Atomic      Atomic             Coordinates (Angstroms)
 Number     Number       Type             X           Y           Z
 ---------------------------------------------------------------------
      1          6           0       -4.705000    9.364000   12.960000
      2          6           0       -3.333000    9.205000   12.836000
      3          6           0       -3.292000    7.729000   14.756000
      4          6           0       -5.385000    8.722000   14.001000
      5          6           0       -2.625000    8.376000   13.717000
      6          6           0       -4.658000    7.917000   14.887000
      7          6           0       -7.045000    8.119000   15.355000
      8          6           0       -0.518000    7.052000   13.719000
      9          6           0        2.026000    4.137000   12.434000
     10          6           0       -8.444000    8.035000   15.893000
     11          6           0        0.922000    7.163000   13.248000
     12          6           0        1.845000    6.140000   13.871000
     13          7           0       -6.745000    8.822000   14.285000
     14          7           0        1.512000    2.929000   12.137000
     15          7           0       -1.230000    8.188000   13.556000
     16          7           0        1.482000    4.773000   13.476000
     17          8           0       -0.993000    6.005000   14.195000
     18          8           0        2.950000    4.647000   11.769000
     19         16           0       -5.713000    7.265000   16.094000
     20          1           0        0.790000    4.292000   14.016000
     21          1           0       -0.708000    8.998000   13.288000
     22          1           0        0.764000    2.556000   12.686000
     23          1           0        1.877000    2.405000   11.368000
     24          1           0        2.876000    6.343000   13.546000
     25          1           0        1.783000    6.223000   14.966000
     26          1           0        0.942000    7.030000   12.156000
     27          1           0        1.294000    8.167000   13.502000
     28          1           0       -8.782000    6.988000   15.871000
     29          1           0       -8.461000    8.404000   16.929000
     30          1           0       -9.113000    8.649000   15.273000
     31          1           0       -2.753000    7.091000   15.447000
     32          1           0       -2.801000    9.728000   12.050000
     33          1           0       -5.248000    9.982000   12.254000
 ---------------------------------------------------------------------
                    Distance matrix (angstroms):
                    1          2          3          4          5
     1  C    0.000000
     2  C    1.386738   0.000000
     3  C    2.809877   2.422118   0.000000
     4  C    1.399373   2.408572   2.436539   0.000000
     5  C    2.423962   1.401665   1.393922   2.796064   0.000000
     6  C    2.410259   2.760647   1.385085   1.400553   2.390119
     7  C    3.572345   4.615593   3.820459   2.225427   4.720751
     8  C    4.842767   3.652304   3.037890   5.153262   2.488459
     9  C    8.538417   7.386820   6.824608   8.854413   6.422384
    10  C    4.934455   6.069306   5.284838   3.661846   6.221898
    11  C    6.049006   4.737566   4.511343   6.540316   3.777901
    12  C    7.357078   6.105500   5.449488   7.678315   5.000431
    13  N    2.492186   3.726665   3.652355   1.392931   4.182815
    14  N    8.985413   7.959322   7.278570   9.197932   7.020041
    15  N    3.716694   2.444442   2.429511   4.212743   1.416789
    16  N    7.721561   6.575443   5.759116   7.938886   5.468742
    17  O    5.156263   4.190761   2.927849   5.168113   2.917799
    18  O    9.070149   7.835173   7.575187   9.542519   6.984323
    19  S    3.904334   4.476892   2.804778   2.571202   4.052184
    20  H    7.552175   6.521434   5.387327   7.599720   5.332043
    21  H    4.027102   2.671662   3.231477   4.739079   2.060537
    22  H    8.736927   7.811345   6.891732   8.806758   6.813272
    23  H    9.710040   8.691325   8.157333   9.978668   7.838281
    24  H    8.181772   6.873633   6.436561   8.608762   5.867140
    25  H    7.482250   6.293066   5.297902   7.652219   5.062201
    26  H    6.163001   4.844445   5.017505   6.804250   4.119700
    27  H    6.141219   4.788541   4.774490   6.720570   3.930454
    28  H    5.544477   6.619510   5.650877   4.247736   6.668951
    29  H    5.548162   6.609889   5.647665   4.258648   6.661578
    30  H    5.029081   6.297341   5.915888   3.939708   6.677560
    31  H    3.893842   3.409211   1.083995   3.417382   2.158821
    32  H    2.141451   1.083674   3.399929   3.390500   2.153548
    33  H    1.084071   2.147016   3.893835   2.158328   3.405838
                    6          7          8          9         10
     6  C    0.000000
     7  C    2.440819   0.000000
     8  C    4.387716   6.812981   0.000000
     9  C    8.061108  10.328195   4.076811   0.000000
    10  C    3.919152   1.501233   8.277321  11.695298   0.000000
    11  C    5.864404   8.296172   1.519132   3.322362   9.771303
    12  C    6.817550   9.227719   2.537443   2.471789  10.655657
    13  N    2.353083   1.314956   6.498368  10.114636   2.468124
    14  N    8.397115  10.512558   4.860324   1.345983  11.802572
    15  N    3.687301   6.087314   1.350559   5.317050   7.584641
    16  N    7.040970   9.350726   3.041856   1.336486  10.724179
    17  O    4.191281   6.514699   1.244351   3.962942   7.907054
    18  O    8.848530  11.172028   4.649037   1.247438  12.582097
    19  S    1.730600   1.746328   5.716119   9.114390   2.844585
    20  H    6.601513   8.821909   3.068660   2.013565  10.139030
    21  H    4.396346   6.723295   2.002193   5.642109   8.219434
    22  H    7.936171   9.952437   4.787967   2.038556  11.184434
    23  H    9.245092  11.320250   5.732175   2.039211  12.597443
    24  H    7.812612  10.239770   3.471577   2.612562  11.683907
    25  H    6.660507   9.037683   2.745333   3.289600  10.427569
    26  H    6.293261   8.672467   2.138937   3.101901  10.152447
    27  H    6.116129   8.542531   2.138611   4.232889  10.028108
    28  H    4.340354   2.136021   8.539842  11.694188   1.100426
    29  H    4.343932   2.136295   8.673134  12.181522   1.099885
    30  H    4.531208   2.136410   8.879153  12.348902   1.099526
    31  H    2.150558   4.414353   2.825373   6.375196   5.785977
    32  H    3.844052   5.614574   3.893408   7.396395   7.034085
    33  H    3.397795   4.039329   5.753610   9.333140   5.219918
                   11         12         13         14         15
    11  C    0.000000
    12  C    1.512146   0.000000
    13  N    7.912682   9.008475   0.000000
    14  N    4.416919   3.664446  10.369156   0.000000
    15  N    2.403454   3.707985   5.598984   6.098295   0.000000
    16  N    2.465296   1.468497   9.205021   2.279069   4.361602
    17  O    2.430020   2.859623   6.405396   4.469023   2.286915
    18  O    3.553939   2.805081  10.851447   2.270417   5.762330
    19  S    7.220342   7.958060   2.600337   9.309101   5.233609
    20  H    2.974876   2.132875   8.795993   2.430986   4.412575
    21  H    2.454735   3.876321   6.121303   6.563990   1.000204
    22  H    4.643841   3.926556   9.909825   1.000017   6.037579
    23  H    5.204324   4.496249  11.136681   0.999581   6.919818
    24  H    2.139935   1.099907   9.962691   3.937153   4.501484
    25  H    2.139263   1.099890   8.941216   4.350531   3.863612
    26  H    1.100251   2.132776   8.175199   4.140466   2.831704
    27  H    1.100416   2.132719   8.103557   5.417323   2.524665
    28  H   10.053774  10.846761   3.166752  11.678385   7.989489
    29  H   10.155320  10.985932   3.179641  12.345024   7.981926
    30  H   10.344566  11.328656   2.571672  12.467699   8.080984
    31  H    4.283271   4.952755   4.503628   6.816786   2.664361
    32  H    4.677089   6.146145   4.622899   8.052077   2.666023
    33  H    6.855924   8.227169   2.776971   9.770164   4.588896
                   16         17         18         19         20
    16  N    0.000000
    17  O    2.856643   0.000000
    18  O    2.254939   4.824613   0.000000
    19  S    8.051833   5.241393  10.030310   0.000000
    20  H    1.000912   2.479012   3.136978   7.446195   0.000000
    21  H    4.762570   3.140370   5.883836   5.993909   4.992036
    22  H    2.460633   4.154483   3.160975   8.702912   2.187069
    23  H    3.194857   5.402669   2.517676  10.176580   3.428446
    24  H    2.100723   3.937589   2.457564   9.006293   2.962920
    25  H    2.100762   2.889315   3.750530   7.651677   2.370086
    26  H    2.669841   2.992051   3.140147   7.736414   3.313510
    27  H    3.399302   3.222555   4.258641   7.525298   3.941299
    28  H   10.769956   8.027689  12.646996   3.089534  10.115959
    29  H   11.134209   8.306683  13.074845   3.089668  10.534473
    30  H   11.423949   8.607393  13.183702   3.761582  10.891873
    31  H    5.214709   2.417540   7.212838   3.034878   4.736561
    32  H    6.702954   4.661611   7.679162   5.558781   6.805184
    33  H    8.597666   6.139140   9.793092   4.726935   8.481638
                   21         22         23         24         25
    21  H    0.000000
    22  H    6.635401   0.000000
    23  H    7.337321   1.731674   0.000000
    24  H    4.467734   4.420578   4.609721   0.000000
    25  H    4.089180   4.436626   5.247053   1.795954   0.000000
    26  H    2.806590   4.508798   4.783910   2.478795   3.042142
    27  H    2.178155   5.694741   6.172073   2.414878   2.482248
    28  H    8.712145  10.996043  12.445689  11.905067  10.631250
    29  H    8.585961  11.717627  13.182828  12.009162  10.655969
    30  H    8.643266  11.890010  13.229386  12.330300  11.167029
    31  H    3.532698   6.368566   7.748144   5.988234   4.643283
    32  H    2.538935   8.034383   8.716372   6.776767   6.465380
    33  H    4.759098   9.564321  10.438465   8.995052   8.421400
                   26         27         28         29         30
    26  H    0.000000
    27  H    1.796772   0.000000
    28  H   10.409571  10.417676   0.000000
    29  H   10.634181  10.342172   1.796514   0.000000
    30  H   10.650816  10.567612   1.796131   1.796515   0.000000
    31  H    4.948477   4.617251   6.044768   6.041652   6.550362
    32  H    4.615245   4.616714   7.607891   7.589020   7.168913
    33  H    6.858572   6.902861   5.876724   5.888045   5.082271
                   31         32         33
    31  H    0.000000
    32  H    4.300661   0.000000
    33  H    4.977766   2.468591   0.000000
 Stoichiometry    C12H14N4O2S
 Framework group  C1[X(C12H14N4O2S)]
 Deg. of freedom    93
 Full point group                 C1      NOp   1
 Largest Abelian subgroup         C1      NOp   1
 Largest concise Abelian subgroup C1      NOp   1
                         Standard orientation:                         
 ---------------------------------------------------------------------
 Center     Atomic      Atomic             Coordinates (Angstroms)
 Number     Number       Type             X           Y           Z
 ---------------------------------------------------------------------
      1          6           0        2.675975    1.944710    0.982023
      2          6           0        1.358131    2.181000    0.620782
      3          6           0        1.270115    0.078979   -0.579392
      4          6           0        3.314745    0.778388    0.546236
      5          6           0        0.645320    1.245755   -0.142031
      6          6           0        2.594985   -0.133616   -0.235904
      7          6           0        4.924687   -0.718106    0.198214
      8          6           0       -1.724731    0.584221   -0.513053
      9          6           0       -5.395974   -0.809930    0.581803
     10          6           0        6.283180   -1.350407    0.289831
     11          6           0       -3.092980    1.220920   -0.687038
     12          6           0       -4.134938    0.277656   -1.244857
     13          7           0        4.640996    0.424761    0.783435
     14          7           0       -5.453655   -1.856541    1.426165
     15          7           0       -0.713146    1.478031   -0.470521
     16          7           0       -4.410928   -0.830149   -0.321232
     17          8           0       -1.561559   -0.644692   -0.405549
     18          8           0       -6.205716    0.137056    0.642095
     19         16           0        3.608027   -1.467865   -0.670077
     20          1           0       -3.830064   -1.643773   -0.370603
     21          1           0       -0.952167    2.421960   -0.699158
     22          1           0       -4.780845   -2.592966    1.355178
     23          1           0       -6.167969   -1.897819    2.124172
     24          1           0       -5.066242    0.836004   -1.420110
     25          1           0       -3.770234   -0.134603   -2.197113
     26          1           0       -3.437626    1.578433    0.294775
     27          1           0       -2.993810    2.074770   -1.374076
     28          1           0        6.196914   -2.333390    0.776902
     29          1           0        6.697258   -1.477340   -0.721195
     30          1           0        6.948851   -0.705588    0.881479
     31          1           0        0.730102   -0.647739   -1.175473
     32          1           0        0.873213    3.099350    0.930358
     33          1           0        3.208429    2.659486    1.599110
 ---------------------------------------------------------------------
 Rotational constants (GHZ):      0.9157028      0.1172153      0.1105226
 Standard basis: 6-31G(d) (6D, 7F)
 There are   317 symmetry adapted basis functions of A   symmetry.
 Integral buffers will be    131072 words long.
 Raffenetti 1 integral format.
 Two-electron integral symmetry is turned on.
   317 basis functions,   612 primitive gaussians,   317 cartesian basis functions
    73 alpha electrons       73 beta electrons
       nuclear repulsion energy      1449.8906028912 Hartrees.
 NAtoms=   33 NActive=   33 NUniq=   33 SFac= 1.00D+00 NAtFMM=   60 NAOKFM=F Big=F
 One-electron integrals computed using PRISM.
 NBasis=   317 RedAO= T  NBF=   317
 NBsUse=   317 1.00D-06 NBFU=   317
 Harris functional with IExCor=  205 diagonalized for initial guess.
 ExpMin= 1.17D-01 ExpMax= 2.19D+04 ExpMxC= 3.30D+03 IAcc=1 IRadAn=         1 AccDes= 0.00D+00
 HarFok:  IExCor=  205 AccDes= 0.00D+00 IRadAn=         1 IDoV= 1
 ScaDFX=  1.000000  1.000000  1.000000  1.000000
 FoFCou: FMM=F IPFlag=           0 FMFlag=      100000 FMFlg1=           0
         NFxFlg=           0 DoJE=T BraDBF=F KetDBF=T FulRan=T
         Omega=  0.000000  0.000000  1.000000  0.000000  0.000000 ICntrl=     500 IOpCl=  0
         NMat0=    1 NMatS0=    1 NMatT0=    0 NMatD0=    1 NMtDS0=    0 NMtDT0=    0
         I1Cent=           4 NGrid=           0.
 Petite list used in FoFCou.
 Initial guess orbital symmetries:
       Occupied  (A) (A) (A) (A) (A) (A) (A) (A) (A) (A) (A) (A)
                 (A) (A) (A) (A) (A) (A) (A) (A) (A) (A) (A) (A)
                 (A) (A) (A) (A) (A) (A) (A) (A) (A) (A) (A) (A)
                 (A) (A) (A) (A) (A) (A) (A) (A) (A) (A) (A) (A)
                 (A) (A) (A) (A) (A) (A) (A) (A) (A) (A) (A) (A)
                 (A) (A) (A) (A) (A) (A) (A) (A) (A) (A) (A) (A)
                 (A)
       Virtual   (A) (A) (A) (A) (A) (A) (A) (A) (A) (A) (A) (A)
                 (A) (A) (A) (A) (A) (A) (A) (A) (A) (A) (A) (A)
                 (A) (A) (A) (A) (A) (A) (A) (A) (A) (A) (A) (A)
                 (A) (A) (A) (A) (A) (A) (A) (A) (A) (A) (A) (A)
                 (A) (A) (A) (A) (A) (A) (A) (A) (A) (A) (A) (A)
                 (A) (A) (A) (A) (A) (A) (A) (A) (A) (A) (A) (A)
                 (A) (A) (A) (A) (A) (A) (A) (A) (A) (A) (A) (A)
                 (A) (A) (A) (A) (A) (A) (A) (A) (A) (A) (A) (A)
                 (A) (A) (A) (A) (A) (A) (A) (A) (A) (A) (A) (A)
                 (A) (A) (A) (A) (A) (A) (A) (A) (A) (A) (A) (A)
                 (A) (A) (A) (A) (A) (A) (A) (A) (A) (A) (A) (A)
                 (A) (A) (A) (A) (A) (A) (A) (A) (A) (A) (A) (A)
                 (A) (A) (A) (A) (A) (A) (A) (A) (A) (A) (A) (A)
                 (A) (A) (A) (A) (A) (A) (A) (A) (A) (A) (A) (A)
                 (A) (A) (A) (A) (A) (A) (A) (A) (A) (A) (A) (A)
                 (A) (A) (A) (A) (A) (A) (A) (A) (A) (A) (A) (A)
                 (A) (A) (A) (A) (A) (A) (A) (A) (A) (A) (A) (A)
                 (A) (A) (A) (A) (A) (A) (A) (A) (A) (A) (A) (A)
                 (A) (A) (A) (A) (A) (A) (A) (A) (A) (A) (A) (A)
                 (A) (A) (A) (A) (A) (A) (A) (A) (A) (A) (A) (A)
                 (A) (A) (A) (A)
 The electronic state of the initial guess is 1-A.
 Requested convergence on RMS density matrix=1.00D-08 within 128 cycles.
 Requested convergence on MAX density matrix=1.00D-06.
 Requested convergence on             energy=1.00D-06.
 No special actions if energy rises.
 Integral accuracy reduced to 1.0D-05 until final iterations.
 Initial convergence to 1.0D-05 achieved.  Increase integral accuracy.
 SCF Done:  E(RHF) =  -1227.65604248     A.U. after   16 cycles
             Convg  =    0.8980D-08             -V/T =  2.0017

 **********************************************************************

            Population analysis using the SCF density.

 **********************************************************************

 Orbital symmetries:
 BldTbl:  Degeneracy threshold= 1.00D-02
       Occupied  (A) (A) (A) (A) (A) (A) (A) (A) (A) (A) (A) (A)
                 (A) (A) (A) (A) (A) (A) (A) (A) (A) (A) (A) (A)
                 (A) (A) (A) (A) (A) (A) (A) (A) (A) (A) (A) (A)
                 (A) (A) (A) (A) (A) (A) (A) (A) (A) (A) (A) (A)
                 (A) (A) (A) (A) (A) (A) (A) (A) (A) (A) (A) (A)
                 (A) (A) (A) (A) (A) (A) (A) (A) (A) (A) (A) (A)
                 (A)
       Virtual   (A) (A) (A) (A) (A) (A) (A) (A) (A) (A) (A) (A)
                 (A) (A) (A) (A) (A) (A) (A) (A) (A) (A) (A) (A)
                 (A) (A) (A) (A) (A) (A) (A) (A) (A) (A) (A) (A)
                 (A) (A) (A) (A) (A) (A) (A) (A) (A) (A) (A) (A)
                 (A) (A) (A) (A) (A) (A) (A) (A) (A) (A) (A) (A)
                 (A) (A) (A) (A) (A) (A) (A) (A) (A) (A) (A) (A)
                 (A) (A) (A) (A) (A) (A) (A) (A) (A) (A) (A) (A)
                 (A) (A) (A) (A) (A) (A) (A) (A) (A) (A) (A) (A)
                 (A) (A) (A) (A) (A) (A) (A) (A) (A) (A) (A) (A)
                 (A) (A) (A) (A) (A) (A) (A) (A) (A) (A) (A) (A)
                 (A) (A) (A) (A) (A) (A) (A) (A) (A) (A) (A) (A)
                 (A) (A) (A) (A) (A) (A) (A) (A) (A) (A) (A) (A)
                 (A) (A) (A) (A) (A) (A) (A) (A) (A) (A) (A) (A)
                 (A) (A) (A) (A) (A) (A) (A) (A) (A) (A) (A) (A)
                 (A) (A) (A) (A) (A) (A) (A) (A) (A) (A) (A) (A)
                 (A) (A) (A) (A) (A) (A) (A) (A) (A) (A) (A) (A)
                 (A) (A) (A) (A) (A) (A) (A) (A) (A) (A) (A) (A)
                 (A) (A) (A) (A) (A) (A) (A) (A) (A) (A) (A) (A)
                 (A) (A) (A) (A) (A) (A) (A) (A) (A) (A) (A) (A)
                 (A) (A) (A) (A) (A) (A) (A) (A) (A) (A) (A) (A)
                 (A) (A) (A) (A)
 The electronic state is 1-A.
 Alpha  occ. eigenvalues --  -91.98019 -20.53661 -20.48459 -15.61451 -15.57568
 Alpha  occ. eigenvalues --  -15.57487 -15.57227 -11.36897 -11.36034 -11.32637
 Alpha  occ. eigenvalues --  -11.29359 -11.27422 -11.27358 -11.27260 -11.25029
 Alpha  occ. eigenvalues --  -11.25010 -11.24977 -11.24816 -11.24784  -8.99145
 Alpha  occ. eigenvalues --   -6.67396  -6.67306  -6.67124  -1.38169  -1.36127
 Alpha  occ. eigenvalues --   -1.28166  -1.26311  -1.22566  -1.18839  -1.14763
 Alpha  occ. eigenvalues --   -1.07769  -1.06078  -1.03525  -1.00267  -0.96281
 Alpha  occ. eigenvalues --   -0.90699  -0.85025  -0.82656  -0.79890  -0.78908
 Alpha  occ. eigenvalues --   -0.76314  -0.74558  -0.71827  -0.71326  -0.68765
 Alpha  occ. eigenvalues --   -0.67162  -0.66114  -0.64773  -0.61570  -0.61102
 Alpha  occ. eigenvalues --   -0.60901  -0.60314  -0.58717  -0.58233  -0.57269
 Alpha  occ. eigenvalues --   -0.56736  -0.55684  -0.55228  -0.54555  -0.53786
 Alpha  occ. eigenvalues --   -0.52845  -0.51953  -0.48570  -0.47403  -0.43257
 Alpha  occ. eigenvalues --   -0.42613  -0.42056  -0.41243  -0.40934  -0.40017
 Alpha  occ. eigenvalues --   -0.37623  -0.32395  -0.30246
 Alpha virt. eigenvalues --    0.10163   0.12976   0.15953   0.17245   0.19524
 Alpha virt. eigenvalues --    0.21286   0.22239   0.24773   0.25246   0.25280
 Alpha virt. eigenvalues --    0.26196   0.26752   0.27305   0.29071   0.30463
 Alpha virt. eigenvalues --    0.31031   0.31262   0.31657   0.32744   0.33026
 Alpha virt. eigenvalues --    0.34454   0.35959   0.36625   0.39294   0.39421
 Alpha virt. eigenvalues --    0.40393   0.42305   0.42767   0.43818   0.47386
 Alpha virt. eigenvalues --    0.48837   0.49482   0.50030   0.51174   0.53152
 Alpha virt. eigenvalues --    0.54002   0.55604   0.56841   0.58993   0.62117
 Alpha virt. eigenvalues --    0.64543   0.67254   0.68996   0.71358   0.72481
 Alpha virt. eigenvalues --    0.73129   0.74539   0.74634   0.76170   0.76334
 Alpha virt. eigenvalues --    0.78385   0.78864   0.79334   0.80191   0.80524
 Alpha virt. eigenvalues --    0.81343   0.81663   0.82302   0.83355   0.84945
 Alpha virt. eigenvalues --    0.85444   0.87949   0.88889   0.89309   0.90009
 Alpha virt. eigenvalues --    0.91468   0.92087   0.93719   0.93960   0.94398
 Alpha virt. eigenvalues --    0.95142   0.96576   0.97502   0.99690   1.02456
 Alpha virt. eigenvalues --    1.02989   1.04096   1.04924   1.05389   1.07555
 Alpha virt. eigenvalues --    1.08086   1.09292   1.09685   1.09968   1.10074
 Alpha virt. eigenvalues --    1.11063   1.11447   1.12182   1.12485   1.13021
 Alpha virt. eigenvalues --    1.13934   1.14488   1.14544   1.16674   1.18480
 Alpha virt. eigenvalues --    1.18774   1.19168   1.19704   1.19955   1.20742
 Alpha virt. eigenvalues --    1.21176   1.21662   1.22933   1.24161   1.25813
 Alpha virt. eigenvalues --    1.27385   1.29614   1.31572   1.33061   1.33805
 Alpha virt. eigenvalues --    1.35793   1.37240   1.38120   1.39250   1.42031
 Alpha virt. eigenvalues --    1.43931   1.44785   1.47438   1.49931   1.52308
 Alpha virt. eigenvalues --    1.54548   1.55345   1.56605   1.57955   1.59571
 Alpha virt. eigenvalues --    1.60662   1.62189   1.63276   1.65178   1.67432
 Alpha virt. eigenvalues --    1.68236   1.69461   1.71405   1.71913   1.73081
 Alpha virt. eigenvalues --    1.73926   1.76707   1.79148   1.83381   1.84808
 Alpha virt. eigenvalues --    1.87377   1.88022   1.92501   1.93610   1.93817
 Alpha virt. eigenvalues --    1.97060   2.00440   2.01568   2.03910   2.07655
 Alpha virt. eigenvalues --    2.08502   2.10006   2.10845   2.12453   2.13195
 Alpha virt. eigenvalues --    2.14035   2.15089   2.16148   2.17591   2.19607
 Alpha virt. eigenvalues --    2.19834   2.21869   2.23832   2.24091   2.25702
 Alpha virt. eigenvalues --    2.27086   2.27847   2.30369   2.32939   2.34666
 Alpha virt. eigenvalues --    2.35879   2.37767   2.38639   2.39771   2.40750
 Alpha virt. eigenvalues --    2.43831   2.45244   2.45975   2.48627   2.50204
 Alpha virt. eigenvalues --    2.53229   2.54265   2.56168   2.58355   2.60610
 Alpha virt. eigenvalues --    2.60775   2.61983   2.62761   2.63498   2.64565
 Alpha virt. eigenvalues --    2.68150   2.72112   2.73359   2.74626   2.77365
 Alpha virt. eigenvalues --    2.79406   2.80797   2.82957   2.84365   2.86011
 Alpha virt. eigenvalues --    2.88655   2.92043   2.92654   2.96696   2.99397
 Alpha virt. eigenvalues --    3.00682   3.01765   3.02610   3.04870   3.05932
 Alpha virt. eigenvalues --    3.07287   3.09940   3.14601   3.17436   3.19968
 Alpha virt. eigenvalues --    3.27413   3.30318   3.32772   3.35646   3.40089
 Alpha virt. eigenvalues --    3.49170   3.52017   3.57054   3.62899   3.80891
 Alpha virt. eigenvalues --    4.24932   4.36315   4.40663   4.47809   4.48982
 Alpha virt. eigenvalues --    4.51543   4.52567   4.54594   4.58532   4.59121
 Alpha virt. eigenvalues --    4.62947   4.63890   4.73582   4.79677   4.85323
 Alpha virt. eigenvalues --    4.87234   4.89349   4.97488   5.17929
          Condensed to atoms (all electrons):
              1          2          3          4          5          6
     1  C    4.907304   0.545493  -0.034460   0.563793  -0.041975  -0.058234
     2  C    0.545493   4.961339  -0.045970  -0.042814   0.551237  -0.034691
     3  C   -0.034460  -0.045970   4.938207  -0.015467   0.594550   0.478611
     4  C    0.563793  -0.042814  -0.015467   4.530361  -0.025001   0.515404
     5  C   -0.041975   0.551237   0.594550  -0.025001   4.549394  -0.042696
     6  C   -0.058234  -0.034691   0.478611   0.515404  -0.042696   5.262546
     7  C    0.003751  -0.000019   0.002686  -0.103087  -0.000080  -0.049979
     8  C   -0.000042   0.001945  -0.002146   0.000009  -0.022377   0.000101
     9  C    0.000000   0.000000   0.000000   0.000000   0.000000   0.000000
    10  C   -0.000069   0.000002  -0.000009   0.004494   0.000000   0.002586
    11  C    0.000000  -0.000166   0.000159   0.000000   0.004580   0.000001
    12  C    0.000000   0.000002  -0.000007   0.000000  -0.000103   0.000000
    13  N   -0.045543   0.002917   0.006904   0.394570  -0.000349  -0.091442
    14  N    0.000000   0.000000   0.000000   0.000000   0.000000   0.000000
    15  N    0.003330  -0.051223  -0.050264   0.000193   0.189550   0.003596
    16  N    0.000000   0.000000   0.000000   0.000000   0.000004   0.000000
    17  O   -0.000009   0.000167  -0.006586   0.000008   0.003396   0.000131
    18  O    0.000000   0.000000   0.000000   0.000000   0.000000   0.000000
    19  S    0.004681   0.000205  -0.045229  -0.069184   0.001860   0.276309
    20  H    0.000000   0.000000   0.000000   0.000000  -0.000001   0.000000
    21  H    0.000030  -0.001404   0.002236  -0.000001  -0.022371  -0.000054
    22  H    0.000000   0.000000   0.000000   0.000000   0.000000   0.000000
    23  H    0.000000   0.000000   0.000000   0.000000   0.000000   0.000000
    24  H    0.000000   0.000000   0.000000   0.000000   0.000001   0.000000
    25  H    0.000000   0.000000  -0.000001   0.000000  -0.000008   0.000000
    26  H    0.000000   0.000023  -0.000002   0.000000  -0.000288   0.000000
    27  H    0.000000  -0.000028  -0.000004   0.000000   0.000239   0.000000
    28  H    0.000002   0.000000  -0.000001  -0.000129   0.000000   0.000027
    29  H    0.000004   0.000000  -0.000001  -0.000113   0.000000   0.000027
    30  H   -0.000014   0.000000   0.000000   0.000247   0.000000  -0.000051
    31  H    0.000088   0.002688   0.369100   0.001009  -0.014323  -0.030153
    32  H   -0.021558   0.376739   0.002869   0.001480  -0.035980   0.000258
    33  H    0.372137  -0.029587  -0.000072  -0.024366   0.001821   0.004374
              7          8          9         10         11         12
     1  C    0.003751  -0.000042   0.000000  -0.000069   0.000000   0.000000
     2  C   -0.000019   0.001945   0.000000   0.000002  -0.000166   0.000002
     3  C    0.002686  -0.002146   0.000000  -0.000009   0.000159  -0.000007
     4  C   -0.103087   0.000009   0.000000   0.004494   0.000000   0.000000
     5  C   -0.000080  -0.022377   0.000000   0.000000   0.004580  -0.000103
     6  C   -0.049979   0.000101   0.000000   0.002586   0.000001   0.000000
     7  C    5.014601   0.000000   0.000000   0.317930   0.000000   0.000000
     8  C    0.000000   4.176949   0.000157   0.000000   0.347238  -0.038477
     9  C    0.000000   0.000157   3.834960   0.000000  -0.003231  -0.028877
    10  C    0.317930   0.000000   0.000000   5.142986   0.000000   0.000000
    11  C    0.000000   0.347238  -0.003231   0.000000   5.352786   0.317813
    12  C    0.000000  -0.038477  -0.028877   0.000000   0.317813   4.893288
    13  N    0.539683   0.000000   0.000000  -0.054003   0.000000   0.000000
    14  N    0.000000  -0.000007   0.323961   0.000000  -0.000071   0.003130
    15  N    0.000000   0.272272  -0.000005   0.000000  -0.107948   0.002275
    16  N    0.000000  -0.001774   0.298573   0.000000  -0.071821   0.223812
    17  O    0.000000   0.570030   0.000375   0.000000  -0.075138   0.006208
    18  O    0.000000  -0.000001   0.624628   0.000000  -0.001247   0.003371
    19  S    0.300534  -0.000003   0.000000  -0.052792   0.000000   0.000000
    20  H    0.000000   0.000280  -0.014406   0.000000   0.000286  -0.017732
    21  H    0.000000  -0.023771   0.000000   0.000000   0.000331   0.000045
    22  H    0.000000   0.000006  -0.018866   0.000000   0.000012  -0.000186
    23  H    0.000000   0.000000  -0.013602   0.000000   0.000004  -0.000082
    24  H    0.000000   0.003780  -0.000413   0.000000  -0.045270   0.407868
    25  H    0.000000  -0.004331   0.002947   0.000000  -0.055205   0.409568
    26  H    0.000000  -0.026285   0.002351   0.000000   0.376146  -0.027492
    27  H    0.000000  -0.045999   0.000013   0.000000   0.385635  -0.040570
    28  H   -0.041094   0.000000   0.000000   0.387919   0.000000   0.000000
    29  H   -0.041062   0.000000   0.000000   0.387261   0.000000   0.000000
    30  H   -0.038893   0.000000   0.000000   0.390181   0.000000   0.000000
    31  H   -0.000005   0.001970   0.000000   0.000000   0.000118   0.000002
    32  H    0.000003   0.000041   0.000000   0.000000   0.000004   0.000000
    33  H   -0.000049   0.000001   0.000000  -0.000006   0.000000   0.000000
             13         14         15         16         17         18
     1  C   -0.045543   0.000000   0.003330   0.000000  -0.000009   0.000000
     2  C    0.002917   0.000000  -0.051223   0.000000   0.000167   0.000000
     3  C    0.006904   0.000000  -0.050264   0.000000  -0.006586   0.000000
     4  C    0.394570   0.000000   0.000193   0.000000   0.000008   0.000000
     5  C   -0.000349   0.000000   0.189550   0.000004   0.003396   0.000000
     6  C   -0.091442   0.000000   0.003596   0.000000   0.000131   0.000000
     7  C    0.539683   0.000000   0.000000   0.000000   0.000000   0.000000
     8  C    0.000000  -0.000007   0.272272  -0.001774   0.570030  -0.000001
     9  C    0.000000   0.323961  -0.000005   0.298573   0.000375   0.624628
    10  C   -0.054003   0.000000   0.000000   0.000000   0.000000   0.000000
    11  C    0.000000  -0.000071  -0.107948  -0.071821  -0.075138  -0.001247
    12  C    0.000000   0.003130   0.002275   0.223812   0.006208   0.003371
    13  N    6.862150   0.000000  -0.000001   0.000000   0.000000   0.000000
    14  N    0.000000   7.200631   0.000000  -0.127857  -0.000028  -0.091065
    15  N   -0.000001   0.000000   7.397148  -0.000081  -0.093019   0.000000
    16  N    0.000000  -0.127857  -0.000081   7.352677  -0.008419  -0.110354
    17  O    0.000000  -0.000028  -0.093019  -0.008419   8.232873  -0.000001
    18  O    0.000000  -0.091065   0.000000  -0.110354  -0.000001   8.257346
    19  S   -0.080545   0.000000  -0.000081   0.000000  -0.000015   0.000000
    20  H    0.000000   0.000474   0.000090   0.313443   0.008788   0.002351
    21  H    0.000000   0.000000   0.325309   0.000006   0.002226   0.000000
    22  H    0.000000   0.316243   0.000000   0.004245  -0.000020   0.002600
    23  H    0.000000   0.319405   0.000000   0.004347   0.000000   0.004642
    24  H    0.000000   0.000268  -0.000050  -0.034131   0.000074   0.008254
    25  H    0.000000  -0.000002  -0.000075  -0.040020   0.001203   0.000383
    26  H    0.000000  -0.000034  -0.002389  -0.003658   0.000791   0.002159
    27  H    0.000000   0.000000   0.002844   0.004591   0.001888  -0.000023
    28  H    0.000390   0.000000   0.000000   0.000000   0.000000   0.000000
    29  H    0.000606   0.000000   0.000000   0.000000   0.000000   0.000000
    30  H    0.003464   0.000000   0.000000   0.000000   0.000000   0.000000
    31  H   -0.000061   0.000000  -0.005561   0.000000   0.008478   0.000000
    32  H   -0.000054   0.000000  -0.000872   0.000000   0.000001   0.000000
    33  H    0.000756   0.000000  -0.000080   0.000000   0.000000   0.000000
             19         20         21         22         23         24
     1  C    0.004681   0.000000   0.000030   0.000000   0.000000   0.000000
     2  C    0.000205   0.000000  -0.001404   0.000000   0.000000   0.000000
     3  C   -0.045229   0.000000   0.002236   0.000000   0.000000   0.000000
     4  C   -0.069184   0.000000  -0.000001   0.000000   0.000000   0.000000
     5  C    0.001860  -0.000001  -0.022371   0.000000   0.000000   0.000001
     6  C    0.276309   0.000000  -0.000054   0.000000   0.000000   0.000000
     7  C    0.300534   0.000000   0.000000   0.000000   0.000000   0.000000
     8  C   -0.000003   0.000280  -0.023771   0.000006   0.000000   0.003780
     9  C    0.000000  -0.014406   0.000000  -0.018866  -0.013602  -0.000413
    10  C   -0.052792   0.000000   0.000000   0.000000   0.000000   0.000000
    11  C    0.000000   0.000286   0.000331   0.000012   0.000004  -0.045270
    12  C    0.000000  -0.017732   0.000045  -0.000186  -0.000082   0.407868
    13  N   -0.080545   0.000000   0.000000   0.000000   0.000000   0.000000
    14  N    0.000000   0.000474   0.000000   0.316243   0.319405   0.000268
    15  N   -0.000081   0.000090   0.325309   0.000000   0.000000  -0.000050
    16  N    0.000000   0.313443   0.000006   0.004245   0.004347  -0.034131
    17  O   -0.000015   0.008788   0.002226  -0.000020   0.000000   0.000074
    18  O    0.000000   0.002351   0.000000   0.002600   0.004642   0.008254
    19  S   15.366206   0.000000   0.000003   0.000000   0.000000   0.000000
    20  H    0.000000   0.307723  -0.000004   0.002835  -0.000133   0.002037
    21  H    0.000003  -0.000004   0.315743   0.000000   0.000000  -0.000008
    22  H    0.000000   0.002835   0.000000   0.321578  -0.012183  -0.000008
    23  H    0.000000  -0.000133   0.000000  -0.012183   0.290066  -0.000002
    24  H    0.000000   0.002037  -0.000008  -0.000008  -0.000002   0.448046
    25  H    0.000000  -0.002658   0.000005  -0.000014   0.000002  -0.019536
    26  H    0.000000   0.000104   0.000275  -0.000010   0.000001  -0.001982
    27  H    0.000000  -0.000090   0.002375   0.000000   0.000000  -0.001968
    28  H    0.000646   0.000000   0.000000   0.000000   0.000000   0.000000
    29  H    0.000743   0.000000   0.000000   0.000000   0.000000   0.000000
    30  H    0.002903   0.000000   0.000000   0.000000   0.000000   0.000000
    31  H   -0.000603   0.000002  -0.000142   0.000000   0.000000   0.000000
    32  H    0.000013   0.000000   0.002249   0.000000   0.000000   0.000000
    33  H   -0.000095   0.000000  -0.000002   0.000000   0.000000   0.000000
             25         26         27         28         29         30
     1  C    0.000000   0.000000   0.000000   0.000002   0.000004  -0.000014
     2  C    0.000000   0.000023  -0.000028   0.000000   0.000000   0.000000
     3  C   -0.000001  -0.000002  -0.000004  -0.000001  -0.000001   0.000000
     4  C    0.000000   0.000000   0.000000  -0.000129  -0.000113   0.000247
     5  C   -0.000008  -0.000288   0.000239   0.000000   0.000000   0.000000
     6  C    0.000000   0.000000   0.000000   0.000027   0.000027  -0.000051
     7  C    0.000000   0.000000   0.000000  -0.041094  -0.041062  -0.038893
     8  C   -0.004331  -0.026285  -0.045999   0.000000   0.000000   0.000000
     9  C    0.002947   0.002351   0.000013   0.000000   0.000000   0.000000
    10  C    0.000000   0.000000   0.000000   0.387919   0.387261   0.390181
    11  C   -0.055205   0.376146   0.385635   0.000000   0.000000   0.000000
    12  C    0.409568  -0.027492  -0.040570   0.000000   0.000000   0.000000
    13  N    0.000000   0.000000   0.000000   0.000390   0.000606   0.003464
    14  N   -0.000002  -0.000034   0.000000   0.000000   0.000000   0.000000
    15  N   -0.000075  -0.002389   0.002844   0.000000   0.000000   0.000000
    16  N   -0.040020  -0.003658   0.004591   0.000000   0.000000   0.000000
    17  O    0.001203   0.000791   0.001888   0.000000   0.000000   0.000000
    18  O    0.000383   0.002159  -0.000023   0.000000   0.000000   0.000000
    19  S    0.000000   0.000000   0.000000   0.000646   0.000743   0.002903
    20  H   -0.002658   0.000104  -0.000090   0.000000   0.000000   0.000000
    21  H    0.000005   0.000275   0.002375   0.000000   0.000000   0.000000
    22  H   -0.000014  -0.000010   0.000000   0.000000   0.000000   0.000000
    23  H    0.000002   0.000001   0.000000   0.000000   0.000000   0.000000
    24  H   -0.019536  -0.001982  -0.001968   0.000000   0.000000   0.000000
    25  H    0.520951   0.003769   0.001183   0.000000   0.000000   0.000000
    26  H    0.003769   0.457852  -0.015502   0.000000   0.000000   0.000000
    27  H    0.001183  -0.015502   0.533424   0.000000   0.000000   0.000000
    28  H    0.000000   0.000000   0.000000   0.503113  -0.026000  -0.019442
    29  H    0.000000   0.000000   0.000000  -0.026000   0.505251  -0.019567
    30  H    0.000000   0.000000   0.000000  -0.019442  -0.019567   0.460460
    31  H    0.000000  -0.000001  -0.000013   0.000000   0.000000   0.000000
    32  H    0.000000  -0.000002  -0.000005   0.000000   0.000000   0.000000
    33  H    0.000000   0.000000   0.000000   0.000000   0.000000   0.000003
             31         32         33
     1  C    0.000088  -0.021558   0.372137
     2  C    0.002688   0.376739  -0.029587
     3  C    0.369100   0.002869  -0.000072
     4  C    0.001009   0.001480  -0.024366
     5  C   -0.014323  -0.035980   0.001821
     6  C   -0.030153   0.000258   0.004374
     7  C   -0.000005   0.000003  -0.000049
     8  C    0.001970   0.000041   0.000001
     9  C    0.000000   0.000000   0.000000
    10  C    0.000000   0.000000  -0.000006
    11  C    0.000118   0.000004   0.000000
    12  C    0.000002   0.000000   0.000000
    13  N   -0.000061  -0.000054   0.000756
    14  N    0.000000   0.000000   0.000000
    15  N   -0.005561  -0.000872  -0.000080
    16  N    0.000000   0.000000   0.000000
    17  O    0.008478   0.000001   0.000000
    18  O    0.000000   0.000000   0.000000
    19  S   -0.000603   0.000013  -0.000095
    20  H    0.000002   0.000000   0.000000
    21  H   -0.000142   0.002249  -0.000002
    22  H    0.000000   0.000000   0.000000
    23  H    0.000000   0.000000   0.000000
    24  H    0.000000   0.000000   0.000000
    25  H    0.000000   0.000000   0.000000
    26  H   -0.000001  -0.000002   0.000000
    27  H   -0.000013  -0.000005   0.000000
    28  H    0.000000   0.000000   0.000000
    29  H    0.000000   0.000000   0.000000
    30  H    0.000000   0.000000   0.000003
    31  H    0.406988  -0.000091   0.000007
    32  H   -0.000091   0.466843  -0.001820
    33  H    0.000007  -0.001820   0.448152
 Mulliken atomic charges:
              1
     1  C   -0.198708
     2  C   -0.236852
     3  C   -0.195103
     4  C    0.268594
     5  C    0.308918
     6  C   -0.236672
     7  C    0.095080
     8  C    0.790438
     9  C    0.991436
    10  C   -0.526480
    11  C   -0.425018
    12  C   -0.113854
    13  N   -0.539443
    14  N   -0.945048
    15  N   -0.884957
    16  N   -0.803583
    17  O   -0.653402
    18  O   -0.703043
    19  S    0.294445
    20  H    0.396613
    21  H    0.396924
    22  H    0.383769
    23  H    0.407536
    24  H    0.233040
    25  H    0.181842
    26  H    0.234177
    27  H    0.172011
    28  H    0.194570
    29  H    0.192851
    30  H    0.220710
    31  H    0.260502
    32  H    0.209881
    33  H    0.228825
 Sum of Mulliken atomic charges =   0.00000
 Mulliken charges with hydrogens summed into heavy atoms:
              1
     1  C    0.030117
     2  C   -0.026971
     3  C    0.065399
     4  C    0.268594
     5  C    0.308918
     6  C   -0.236672
     7  C    0.095080
     8  C    0.790438
     9  C    0.991436
    10  C    0.081651
    11  C   -0.018830
    12  C    0.301028
    13  N   -0.539443
    14  N   -0.153743
    15  N   -0.488033
    16  N   -0.406969
    17  O   -0.653402
    18  O   -0.703043
    19  S    0.294445
 Sum of Mulliken charges with hydrogens summed into heavy atoms =   0.00000
 DipInt: DoE/N= T F RetVal/Mat= T F Init=T NMatP=  1 IDeriv=0 Min/MaxMlt=  0  4
 Entering OneElI...
 OneElI was handed    33295119 working-precision words.
 Multipole integrals L=0 to 4 MinM= 0 MaxM= 0.
 Requested accuracy = 0.1000D-12
 PrsmSu:  NPrtUS=   1 ThrOK=F IAlg=1 NPAlg=1 LenDen=           0.
 Prism:   IPart=     0 DynPar=F LinDyn=F Incr=          38.
 PRISM was handed    32927592 working-precision words and  3888 shell-pairs
 IPart=  0 NShTot=        3888 NBatch=          53 AvBLen=        73.4
 PrSmSu:  NxtVal=             39.
 Electronic moments (au):
       -146.00000000          1.17098013         -0.19939614         -0.50640419
      -8041.03799008       -892.34113113       -385.15724256          2.24580078
         -0.00280068         -4.15482176       6305.93695515       -445.37698312
        -81.39116535       -716.42079678       8323.71236581      -4050.28121699
        849.31194476         73.01825413       -448.09109393      -1910.88742771
    -766016.25299082     -12710.04382500      -2929.30686839       9310.08172153
      21064.16077090      -2744.26555862       -331.75282865        386.93130314
        438.02187663     -44467.80232793     -24613.10427297      -3024.50181117
       7964.92160621       1563.18042592      -2386.95152031
 Electronic spatial extent (au):  <R**2>=           9318.5364
 DipInt: DoE/N= F T RetVal/Mat= T F Init=T NMatP=  1 IDeriv=0 Min/MaxMlt=  0  4
 Nuclear    moments (au):
        146.00000000          0.00000000          0.00000000          0.00000000
       7936.08153847        817.18246721        299.75914216          0.00000000
          0.00000000          0.00000000      -5917.60971252        441.60781833
         88.04720123        645.89132840      -8522.39724855       4036.68186523
       -921.01712765        -86.71442891        469.12934874       1960.37700172
     734173.59501974       9876.27726171       1616.84063377      -8823.07051548
     -21377.08202187       2992.28755095        266.23268949       -574.27569856
       -512.14689137      39829.29124689      19985.64653790       2363.17193923
      -8511.97363765      -1658.03176284       2544.52223968
 Total      moments (au):
          0.00000000          1.17098013         -0.19939614         -0.50640419
       -104.95645161        -75.15866392        -85.39810040          2.24580078
         -0.00280068         -4.15482176        388.32724264         -3.76916479
          6.65603588        -70.52946838       -198.68488274        -13.59935176
        -71.70518289        -13.69617478         21.03825481         49.48957401
     -31842.65797108      -2833.76656330      -1312.46623462        487.01120605
       -312.92125097        248.02199233        -65.52013915       -187.34439543
        -74.12501474      -4638.51108105      -4627.45773507       -661.32987194
       -547.05203144        -94.85133692        157.57071937
 Traceless Quadrup. (au):
        -16.45204630         13.34574139          3.10630491          2.24580078
         -0.00280068         -4.15482176
 Charge=              0.0000 electrons
 Dipole moment (field-independent basis, Debye):
    X=              2.9763    Y=             -0.5068    Z=             -1.2872  Tot=              3.2821
 Quadrupole moment (field-independent basis, Debye-Ang):
   XX=           -141.1700   YY=           -101.0910   ZZ=           -114.8634
   XY=              3.0207   XZ=             -0.0038   YZ=             -5.5884
 Traceless Quadrupole moment (field-independent basis, Debye-Ang):
   XX=            -22.1286   YY=             17.9505   ZZ=              4.1781
   XY=              3.0207   XZ=             -0.0038   YZ=             -5.5884
 Octapole moment (field-independent basis, Debye-Ang**2):
  XXX=            276.3964  YYY=             -2.6827  ZZZ=              4.7375  XYY=            -50.2002
  XXY=           -141.4162  XXZ=             -9.6795  XZZ=            -51.0370  YZZ=             -9.7484
  YYZ=             14.9742  XYZ=             35.2248
 Hexadecapole moment (field-independent basis, Debye-Ang**3):
 XXXX=         -11993.4711 YYYY=          -1067.3323 ZZZZ=           -494.3377 XXXY=            183.4318
 XXXZ=           -117.8611 YYYX=             93.4170 YYYZ=            -24.6780 ZZZX=            -70.5629
 ZZZY=            -27.9190 XXYY=          -1747.0856 XXZZ=          -1742.9224 YYZZ=           -249.0885
 XXYZ=           -206.0460 YYXZ=            -35.7256 ZZXY=             59.3487
 N-N= 1.449890602891D+03 E-N=-5.788715064578D+03  KE= 1.225592834432D+03
 Entering OneElI...
 OneElI was handed    33092999 working-precision words.
 Calculate electrostatic properties
    NBasis =   317  MinDer = 0  MaxDer = 0
    NGrid  =    33  NMatD  =   1
 Requested accuracy = 0.1000D-12
 PrsmSu:  NPrtUS=   1 ThrOK=F IAlg=1 NPAlg=1 LenDen=           0.
 Prism:   IPart=     0 DynPar=F LinDyn=F Incr=         512.
 PRISM was handed    32763140 working-precision words and  3357 shell-pairs
 IPart=  0 NShTot=      110781 NBatch=        3357 AvBLen=        33.0
 PrSmSu:  NxtVal=            513.
 --------------------------------------------------------
       Center         ----      EFG at Nuclei      ----
                      3XX-RR        3YY-RR        3ZZ-RR
 --------------------------------------------------------
     1   Atom        0.134693      0.034664     -0.169357
     2   Atom        0.140694      0.031514     -0.172207
     3   Atom        0.087627      0.071767     -0.159394
     4   Atom       -0.010648      0.119332     -0.108683
     5   Atom       -0.136287      0.210157     -0.073870
     6   Atom        0.170428     -0.095398     -0.075030
     7   Atom        0.147924      0.076630     -0.224555
     8   Atom        0.268446      0.287813     -0.556259
     9   Atom        0.002217      0.106784     -0.109002
    10   Atom       -0.087670      0.043035      0.044635
    11   Atom       -0.026580      0.003456      0.023124
    12   Atom        0.150719     -0.099979     -0.050740
    13   Atom        0.151545     -0.041593     -0.109953
    14   Atom        0.064020     -0.180360      0.116340
    15   Atom       -0.459145     -0.392697      0.851842
    16   Atom        0.138539     -0.294150      0.155611
    17   Atom        1.674647     -1.030816     -0.643831
    18   Atom       -0.308100     -0.503535      0.811635
    19   Atom       -1.755586      0.400976      1.354610
    20   Atom        0.013027     -0.209854      0.196827
    21   Atom        0.134701     -0.354635      0.219934
    22   Atom       -0.067088     -0.135290      0.202378
    23   Atom       -0.103018      0.193528     -0.090510
    24   Atom       -0.151885      0.021245      0.130640
    25   Atom        0.101157      0.074413     -0.175569
    26   Atom        0.097236      0.096959     -0.194195
    27   Atom        0.127007     -0.112877     -0.014130
    28   Atom        0.132666     -0.198935      0.066269
    29   Atom        0.075260      0.143012     -0.218272
    30   Atom       -0.019922     -0.002570      0.022492
    31   Atom        0.037675     -0.056842      0.019167
    32   Atom        0.053279     -0.177388      0.124109
    33   Atom        0.039089     -0.051226      0.012138
 --------------------------------------------------------
                        XY            XZ            YZ
 --------------------------------------------------------
     1   Atom       -0.074509      0.123265      0.176396
     2   Atom       -0.040888      0.101228      0.126354
     3   Atom       -0.034512      0.119302      0.159397
     4   Atom       -0.056368      0.041799      0.184589
     5   Atom        0.009839      0.021478      0.194761
     6   Atom        0.088103      0.173577      0.079822
     7   Atom       -0.218646      0.036312      0.175393
     8   Atom       -0.115040      0.114955     -0.076693
     9   Atom       -0.286662     -0.272677     -0.188005
    10   Atom        0.057912     -0.007703      0.025715
    11   Atom        0.052448     -0.015575      0.035032
    12   Atom       -0.120092      0.029993      0.187007
    13   Atom        0.448513      0.494861      0.426181
    14   Atom        0.481830      0.608947      0.526144
    15   Atom       -0.048611     -0.284164      0.270358
    16   Atom        0.370192      0.709310      0.465250
    17   Atom        0.316750      0.157120      0.002904
    18   Atom        0.873474     -0.571286     -0.576987
    19   Atom        0.742637     -0.796252     -0.667104
    20   Atom        0.299020      0.055082      0.004925
    21   Atom        0.129646     -0.050226      0.138531
    22   Atom        0.323813      0.063333     -0.001354
    23   Atom        0.000987      0.333217      0.045796
    24   Atom        0.171772     -0.063118      0.042643
    25   Atom        0.045222      0.123961     -0.133497
    26   Atom        0.043396      0.112163     -0.126801
    27   Atom       -0.035014      0.019564      0.208895
    28   Atom       -0.026772      0.013041      0.171049
    29   Atom        0.023902      0.147304     -0.046928
    30   Atom       -0.148618     -0.140772     -0.135046
    31   Atom       -0.137677     -0.130063     -0.175919
    32   Atom        0.179058      0.049501     -0.121271
    33   Atom       -0.144747     -0.132032     -0.179866
 --------------------------------------------------------


 ---------------------------------------------------------------------------------
              Nuclear Quadrupole in Principal Axis System
 ---------------------------------------------------------------------------------

       Atom             a.u.   MegaHertz   Gauss  10(-4) cm-1        Axes

              Baa    -0.3170   -42.542   -15.180   -14.190 -0.3037 -0.4778  0.8243
     1 C(13)  Bbb     0.1362    18.283     6.524     6.099  0.0596  0.8540  0.5169
              Bcc     0.1808    24.259     8.656     8.092  0.9509 -0.2061  0.2309
 
              Baa    -0.2621   -35.175   -12.551   -11.733 -0.2612 -0.4120  0.8729
     2 C(13)  Bbb     0.0914    12.267     4.377     4.092 -0.0788  0.9104  0.4061
              Bcc     0.1707    22.908     8.174     7.641  0.9621 -0.0373  0.2703
 
              Baa    -0.2812   -37.731   -13.463   -12.586 -0.3149 -0.4161  0.8531
     3 C(13)  Bbb     0.1150    15.430     5.506     5.147  0.8173 -0.5759  0.0208
              Bcc     0.1662    22.301     7.958     7.439  0.4826  0.7038  0.5214
 
              Baa    -0.2304   -30.919   -11.032   -10.313 -0.2816 -0.4830  0.8291
     4 C(13)  Bbb     0.0045     0.598     0.213     0.200  0.9512 -0.0270  0.3073
              Bcc     0.2259    30.320    10.819    10.114 -0.1260  0.8752  0.4670
 
              Baa    -0.1781   -23.904    -8.530    -7.974 -0.3361 -0.4154  0.8452
     5 C(13)  Bbb    -0.1318   -17.688    -6.312    -5.900  0.9409 -0.1876  0.2819
              Bcc     0.3100    41.592    14.841    13.874  0.0415  0.8901  0.4540
 
              Baa    -0.1814   -24.336    -8.684    -8.118 -0.2918 -0.4730  0.8314
     6 C(13)  Bbb    -0.1130   -15.163    -5.411    -5.058 -0.4526  0.8340  0.3157
              Bcc     0.2944    39.499    14.094    13.176  0.8427  0.2842  0.4574
 
              Baa    -0.3417   -45.856   -16.362   -15.296 -0.2809 -0.4922  0.8239
     7 C(13)  Bbb    -0.0063    -0.850    -0.303    -0.283  0.6412  0.5425  0.5427
              Bcc     0.3481    46.705    16.666    15.579  0.7141 -0.6807 -0.1632
 
              Baa    -0.5763   -77.333   -27.594   -25.796 -0.1250  0.0712  0.9896
     8 C(13)  Bbb     0.1640    22.010     7.854     7.342  0.7191  0.6937  0.0409
              Bcc     0.4123    55.323    19.741    18.454 -0.6835  0.7168 -0.1379
 
              Baa    -0.5093   -68.349   -24.389   -22.799  0.6063  0.4764  0.6367
     9 C(13)  Bbb     0.1601    21.482     7.665     7.166 -0.4073 -0.5017  0.7632
              Bcc     0.3493    46.867    16.723    15.633 -0.6830  0.7221  0.1102
 
              Baa    -0.1114   -14.945    -5.333    -4.985  0.9251 -0.3646  0.1058
    10 C(13)  Bbb     0.0325     4.365     1.557     1.456 -0.2830 -0.4767  0.8322
              Bcc     0.0788    10.581     3.775     3.529  0.2530  0.7999  0.5442
 
              Baa    -0.0776   -10.414    -3.716    -3.474  0.7244 -0.6086  0.3237
    11 C(13)  Bbb     0.0206     2.767     0.987     0.923 -0.5964 -0.3178  0.7371
              Bcc     0.0570     7.646     2.728     2.551  0.3458  0.7270  0.5932
 
              Baa    -0.2919   -39.164   -13.975   -13.064  0.2453  0.7510 -0.6130
    12 C(13)  Bbb     0.0823    11.038     3.939     3.682  0.4747  0.4583  0.7514
              Bcc     0.2096    28.125    10.036     9.382  0.8453 -0.4753 -0.2441
 
              Baa    -0.5241   -20.212    -7.212    -6.742 -0.3196 -0.4429  0.8377
    13 N(14)  Bbb    -0.4014   -15.480    -5.524    -5.164 -0.6868  0.7173  0.1172
              Bcc     0.9254    35.692    12.736    11.905  0.6528  0.5379  0.5334
 
              Baa    -0.5816   -22.429    -8.003    -7.482 -0.1697  0.8524 -0.4946
    14 N(14)  Bbb    -0.5162   -19.909    -7.104    -6.641  0.7814 -0.1894 -0.5946
              Bcc     1.0978    42.338    15.107    14.123  0.6006  0.4873  0.6339
 
              Baa    -0.5188   -20.010    -7.140    -6.675  0.9703 -0.0992  0.2207
    15 N(14)  Bbb    -0.4475   -17.257    -6.158    -5.756  0.1389  0.9752 -0.1725
              Bcc     0.9663    37.267    13.298    12.431 -0.1981  0.1981  0.9600
 
              Baa    -0.6126   -23.626    -8.430    -7.881 -0.3714 -0.6016  0.7072
    16 N(14)  Bbb    -0.4938   -19.044    -6.796    -6.353 -0.6758  0.6975  0.2384
              Bcc     1.1064    42.671    15.226    14.233  0.6367  0.3894  0.6656
 
              Baa    -1.0680    77.277    27.574    25.777 -0.1167  0.9925  0.0364
    17 O(17)  Bbb    -0.6536    47.296    16.876    15.776 -0.0613 -0.0438  0.9972
              Bcc     1.7216  -124.572   -44.450   -41.553  0.9913  0.1141  0.0660
 
              Baa    -1.2861    93.065    33.208    31.043 -0.6565  0.7538  0.0285
    18 O(17)  Bbb    -0.1847    13.365     4.769     4.458  0.5973  0.4964  0.6299
              Bcc     1.4709  -106.430   -37.977   -35.501 -0.4607 -0.4306  0.7761
 
              Baa    -2.0866   -85.548   -30.526   -28.536  0.9553 -0.2383  0.1749
    19 S(33)  Bbb     0.0924     3.790     1.352     1.264  0.1158  0.8461  0.5203
              Bcc     1.9941    81.758    29.173    27.271 -0.2719 -0.4768  0.8359
 
              Baa    -0.4187  -223.425   -79.723   -74.526 -0.5726  0.8186  0.0447
    20 H(1)   Bbb     0.1601    85.397    30.472    28.485 -0.4885 -0.3845  0.7833
              Bcc     0.2587   138.028    49.252    46.041  0.6584  0.4267  0.6201
 
              Baa    -0.4204  -224.318   -80.042   -74.825 -0.2408  0.9446 -0.2232
    21 H(1)   Bbb     0.1644    87.738    31.307    29.266  0.9468  0.2792  0.1600
              Bcc     0.2560   136.580    48.735    45.558 -0.2135  0.1728  0.9615
 
              Baa    -0.4298  -229.313   -81.824   -76.490 -0.6711  0.7382  0.0688
    22 H(1)   Bbb     0.1679    89.562    31.958    29.875 -0.4315 -0.4643  0.7734
              Bcc     0.2619   139.751    49.866    46.616  0.6029  0.4893  0.6301
 
              Baa    -0.4316  -230.291   -82.174   -76.817  0.7110  0.0503 -0.7013
    23 H(1)   Bbb     0.1766    94.208    33.616    31.424 -0.3726  0.8728 -0.3152
              Bcc     0.2551   136.083    48.558    45.393  0.5963  0.4855  0.6393
 
              Baa    -0.2721  -145.156   -51.795   -48.419  0.8359 -0.5165  0.1857
    24 H(1)   Bbb     0.1265    67.492    24.083    22.513  0.5447  0.8223 -0.1647
              Bcc     0.1456    77.664    27.712    25.906 -0.0676  0.2388  0.9687
 
              Baa    -0.2791  -148.915   -53.137   -49.673 -0.3274  0.3702  0.8693
    25 H(1)   Bbb     0.1292    68.938    24.599    22.995  0.3644  0.8983 -0.2453
              Bcc     0.1499    79.977    28.538    26.678  0.8718 -0.2365  0.4290
 
              Baa    -0.2800  -149.401   -53.310   -49.835 -0.3037  0.3350  0.8919
    26 H(1)   Bbb     0.1354    72.243    25.778    24.098  0.9438 -0.0224  0.3298
              Bcc     0.1446    77.158    27.532    25.737  0.1304  0.9420 -0.3094
 
              Baa    -0.2820  -150.456   -53.686   -50.187  0.0964  0.7815 -0.6165
    27 H(1)   Bbb     0.1290    68.837    24.563    22.962  0.9567  0.0983  0.2741
              Bcc     0.1530    81.618    29.123    27.225 -0.2748  0.6162  0.7381
 
              Baa    -0.2849  -152.001   -54.238   -50.702  0.0711  0.8957 -0.4389
    28 H(1)   Bbb     0.1348    71.918    25.662    23.989  0.9975 -0.0618  0.0355
              Bcc     0.1501    80.084    28.576    26.713 -0.0047  0.4403  0.8978
 
              Baa    -0.2859  -152.529   -54.426   -50.878 -0.3818  0.1215  0.9162
    29 H(1)   Bbb     0.1353    72.178    25.755    24.076  0.8748 -0.2725  0.4006
              Bcc     0.1506    80.351    28.671    26.802  0.2984  0.9545 -0.0023
 
              Baa    -0.2842  -151.632   -54.106   -50.579  0.6123  0.5805  0.5367
    30 H(1)   Bbb     0.1374    73.320    26.162    24.457  0.7381 -0.6630 -0.1249
              Bcc     0.1468    78.312    27.944    26.122 -0.2833 -0.4726  0.8345
 
              Baa    -0.3035  -161.917   -57.776   -54.010  0.4847  0.6709  0.5612
    31 H(1)   Bbb     0.1357    72.406    25.836    24.152  0.7774 -0.6245  0.0752
              Bcc     0.1678    89.512    31.940    29.858 -0.4010 -0.3998  0.8243
 
              Baa    -0.3138  -167.416   -59.738   -55.844 -0.4510  0.8457  0.2852
    32 H(1)   Bbb     0.1417    75.598    26.975    25.217  0.8106  0.2544  0.5275
              Bcc     0.1721    91.818    32.763    30.627 -0.3735 -0.4691  0.8003
 
              Baa    -0.3115  -166.210   -59.308   -55.442  0.4876  0.6634  0.5676
    33 H(1)   Bbb     0.1456    77.662    27.712    25.905  0.8086 -0.5883 -0.0071
              Bcc     0.1660    88.548    31.596    29.536 -0.3292 -0.4624  0.8233
 

 ---------------------------------------------------------------------------------

 No NMR shielding tensors so no spin-rotation constants.
 Leave Link  601 at Thu Jun 16 11:10:56 2016, MaxMem=   33554432 cpu:       0.4
 Merz-Kollman atomic radii used.
 Atom Element Radius
    1     6    1.50
    2     6    1.50
    3     6    1.50
    4     6    1.50
    5     6    1.50
    6     6    1.50
    7     6    1.50
    8     6    1.50
    9     6    1.50
   10     6    1.50
   11     6    1.50
   12     6    1.50
   13     7    1.50
   14     7    1.50
   15     7    1.50
   16     7    1.50
   17     8    1.40
   18     8    1.40
   19    16    1.75
   20     1    1.20
   21     1    1.20
   22     1    1.20
   23     1    1.20
   24     1    1.20
   25     1    1.20
   26     1    1.20
   27     1    1.20
   28     1    1.20
   29     1    1.20
   30     1    1.20
   31     1    1.20
   32     1    1.20
   33     1    1.20
 Generate VDW surfaces: Layer= 4 Dens= 6 Start= 1.400 Inc= 0.200

[...]
 8860 Fit       0.006290
 8861 Fit       0.006759
 8862 Fit       0.006295
 8863 Fit       0.005388
 8864 Fit       0.004488
 8865 Fit       0.003792
 8866 Fit       0.003233
 8867 Fit       0.002636
 8868 Fit       0.002055
 8869 Fit       0.002016
 8870 Fit       0.004024
 8871 Fit       0.005313
 8872 Fit       0.005476
 8873 Fit       0.004669
 8874 Fit       0.003864
 8875 Fit       0.003413
 8876 Fit       0.004535
 8877 Fit      -0.004994
 8878 Fit       0.000730
 8879 Fit       0.000390
 8880 Fit      -0.005728
 8881 Fit      -0.003896
 8882 Fit       0.005306
 8883 Fit       0.007020
 8884 Fit       0.005609
 8885 Fit       0.001046
 8886 Fit      -0.006003
 8887 Fit      -0.002562
 8888 Fit       0.001870
 8889 Fit       0.012930
 8890 Fit       0.010939
 8891 Fit       0.006848
 8892 Fit       0.001266
 8893 Fit      -0.005794
 8894 Fit      -0.001057
 8895 Fit       0.002407
 8896 Fit       0.015966
 8897 Fit       0.011278
 8898 Fit       0.005869
 8899 Fit      -0.000332
 8900 Fit      -0.007821
 8901 Fit       0.020068
 8902 Fit       0.014351
 8903 Fit       0.008660
 8904 Fit       0.002693
 8905 Fit      -0.004106
 8906 Fit      -0.012548
 8907 Fit       0.023449
 8908 Fit       0.016962
 8909 Fit       0.011147
 8910 Fit       0.005495
 8911 Fit      -0.000555
 8912 Fit      -0.007674
 8913 Fit       0.022777
 8914 Fit       0.016143
 8915 Fit       0.010378
 8916 Fit       0.004807
 8917 Fit      -0.001185
 8918 Fit      -0.008300
 8919 Fit       0.021018
 8920 Fit       0.014910
 8921 Fit       0.009551
 8922 Fit       0.004318
 8923 Fit      -0.001343
 8924 Fit      -0.008063
 8925 Fit       0.012443
 8926 Fit       0.007600
 8927 Fit       0.002680
 8928 Fit      -0.002788
 8929 Fit      -0.009381
 8930 Fit       0.026117
 8931 Fit       0.021353
 8932 Fit       0.017406
 8933 Fit       0.013936
 8934 Fit       0.010705
 8935 Fit       0.025073
 8936 Fit       0.021411
 8937 Fit       0.018225
 8938 Fit       0.015373
 8939 Fit       0.012734
 8940 Fit       0.010221
 8941 Fit       0.007788
 8942 Fit       0.025379
 8943 Fit       0.022783
 8944 Fit       0.020253
 8945 Fit       0.017872
 8946 Fit       0.015640
 8947 Fit       0.013531
 8948 Fit       0.011524
 8949 Fit       0.009626
 8950 Fit       0.007892
 8951 Fit       0.022649
 8952 Fit       0.021542
 8953 Fit       0.019982
 8954 Fit       0.018256
 8955 Fit       0.016497
 8956 Fit       0.014765
 8957 Fit       0.013086
 8958 Fit       0.011495
 8959 Fit       0.010052
 8960 Fit       0.008882
 8961 Fit       0.019148
 8962 Fit       0.019329
 8963 Fit       0.018741
 8964 Fit       0.017717
 8965 Fit       0.016469
 8966 Fit       0.015124
 8967 Fit       0.013761
 8968 Fit       0.012445
 8969 Fit       0.011258
 8970 Fit       0.010324
 8971 Fit       0.009852
 8972 Fit       0.015990
 8973 Fit       0.016962
 8974 Fit       0.017182
 8975 Fit       0.016838
 8976 Fit       0.016124
 8977 Fit       0.015194
 8978 Fit       0.014161
 8979 Fit       0.013116
 8980 Fit       0.012153
 8981 Fit       0.011389
 8982 Fit       0.010981
 8983 Fit       0.012461
 8984 Fit       0.013903
 8985 Fit       0.015043
 8986 Fit       0.015631
 8987 Fit       0.015672
 8988 Fit       0.015288
 8989 Fit       0.014627
 8990 Fit       0.013823
 8991 Fit       0.012999
 8992 Fit       0.012283
 8993 Fit       0.011817
 8994 Fit       0.011747
 8995 Fit       0.012490
 8996 Fit       0.013560
 8997 Fit       0.014323
 8998 Fit       0.014636
 8999 Fit       0.014523
 9000 Fit       0.014099
 9001 Fit       0.013506
 9002 Fit       0.012896
 9003 Fit       0.012421
 9004 Fit       0.012218
 9005 Fit       0.011524
 9006 Fit       0.012497
 9007 Fit       0.013309
 9008 Fit       0.013759
 9009 Fit       0.013791
 9010 Fit       0.013500
 9011 Fit       0.013063
 9012 Fit       0.012678
 9013 Fit       0.012514
 9014 Fit       0.010572
 9015 Fit       0.011743
 9016 Fit       0.012557
 9017 Fit       0.013088
 9018 Fit       0.013159
 9019 Fit       0.012918
 9020 Fit       0.012672
 9021 Fit       0.012660
 9022 Fit       0.011066
 9023 Fit       0.012024
 9024 Fit       0.012591
 9025 Fit       0.012667
 9026 Fit       0.012540
 9027 Fit       0.012351
 9028 Fit       0.011824
 9029 Fit       0.012310
 9030 Fit       0.002857
 9031 Fit       0.003589
 9032 Fit       0.002114
 9033 Fit       0.001205
 9034 Fit       0.002082
 9035 Fit       0.003551
 9036 Fit       0.004206
 9037 Fit       0.004284
 9038 Fit       0.001259
 9039 Fit       0.002792
 9040 Fit       0.004130
 9041 Fit       0.005016
 9042 Fit       0.005318
 9043 Fit       0.005047
 9044 Fit       0.004947
 9045 Fit       0.000371
 9046 Fit       0.001863
 9047 Fit       0.003300
 9048 Fit       0.004558
 9049 Fit       0.005497
 9050 Fit       0.006052
 9051 Fit       0.006227
 9052 Fit       0.006065
 9053 Fit       0.005621
 9054 Fit       0.005583
 9055 Fit       0.001517
 9056 Fit       0.003029
 9057 Fit       0.004417
 9058 Fit       0.005535
 9059 Fit       0.006324
 9060 Fit       0.006787
 9061 Fit       0.006954
 9062 Fit       0.006869
 9063 Fit       0.006578
 9064 Fit       0.006134
 9065 Fit       0.003488
 9066 Fit       0.004939
 9067 Fit       0.006048
 9068 Fit       0.006821
 9069 Fit       0.007291
 9070 Fit       0.007500
 9071 Fit       0.007492
 9072 Fit       0.007308
 9073 Fit       0.006995
 9074 Fit       0.006602
 9075 Fit       0.003916
 9076 Fit       0.005379
 9077 Fit       0.006450
 9078 Fit       0.007188
 9079 Fit       0.007650
 9080 Fit       0.007886
 9081 Fit       0.007934
 9082 Fit       0.007831
 9083 Fit       0.007617
 9084 Fit       0.007331
 9085 Fit       0.007025
 9086 Fit       0.004884
 9087 Fit       0.006200
 9088 Fit       0.007106
 9089 Fit       0.007701
 9090 Fit       0.008051
 9091 Fit       0.008207
 9092 Fit       0.008208
 9093 Fit       0.008090
 9094 Fit       0.007892
 9095 Fit       0.007655
 9096 Fit       0.005850
 9097 Fit       0.006904
 9098 Fit       0.007609
 9099 Fit       0.008057
 9100 Fit       0.008307
 9101 Fit       0.008404
 9102 Fit       0.008383
 9103 Fit       0.008276
 9104 Fit       0.008120
 9105 Fit       0.006389
 9106 Fit       0.007274
 9107 Fit       0.007859
 9108 Fit       0.008230
 9109 Fit       0.008438
 9110 Fit       0.008523
 9111 Fit       0.008517
 9112 Fit       0.008451
 9113 Fit       0.008358
 9114 Fit       0.007278
 9115 Fit       0.007864
 9116 Fit       0.008246
 9117 Fit       0.008480
 9118 Fit       0.008604
 9119 Fit       0.008651
 9120 Fit       0.008654
 9121 Fit       0.007848
 9122 Fit       0.008240
 9123 Fit       0.008509
 9124 Fit       0.008689
 9125 Fit       0.008813
 9126 Fit       0.008412
 9127 Fit       0.008654
 9128 Fit       0.008870
 9129 Fit       0.008635
 9130 Fit       0.008403
 9131 Fit       0.007308
 9132 Fit       0.006770
 9133 Fit       0.008766
 9134 Fit       0.008763
 9135 Fit       0.008737
 9136 Fit       0.008670
 9137 Fit       0.008547
 9138 Fit       0.008357
 9139 Fit       0.008092
 9140 Fit       0.007745
 9141 Fit       0.007316
 9142 Fit       0.006733
 9143 Fit       0.006008
 9144 Fit       0.005113
 9145 Fit       0.008196
 9146 Fit       0.008348
 9147 Fit       0.008477
 9148 Fit       0.008558
 9149 Fit       0.008575
 9150 Fit       0.008516
 9151 Fit       0.008368
 9152 Fit       0.008125
 9153 Fit       0.007777
 9154 Fit       0.007347
 9155 Fit       0.006753
 9156 Fit       0.006012
 9157 Fit       0.005109
 9158 Fit       0.004026
 9159 Fit       0.002754
 9160 Fit       0.007435
 9161 Fit       0.007847
 9162 Fit       0.008142
 9163 Fit       0.008341
 9164 Fit       0.008447
 9165 Fit       0.008453
 9166 Fit       0.008353
 9167 Fit       0.008140
 9168 Fit       0.007807
 9169 Fit       0.007342
 9170 Fit       0.006718
 9171 Fit       0.005931
 9172 Fit       0.004977
 9173 Fit       0.003866
 9174 Fit       0.002629
 9175 Fit       0.001341
 9176 Fit       0.000133
 9177 Fit       0.006738
 9178 Fit       0.007431
 9179 Fit       0.007882
 9180 Fit       0.008160
 9181 Fit       0.008290
 9182 Fit       0.008277
 9183 Fit       0.008117
 9184 Fit       0.007807
 9185 Fit       0.007252
 9186 Fit       0.006616
 9187 Fit       0.005804
 9188 Fit       0.004834
 9189 Fit       0.003748
 9190 Fit       0.002620
 9191 Fit       0.001551
 9192 Fit       0.000606
 9193 Fit       0.006066
 9194 Fit       0.007000
 9195 Fit       0.007582
 9196 Fit       0.007914
 9197 Fit       0.008036
 9198 Fit       0.007965
 9199 Fit       0.007703
 9200 Fit       0.007035
 9201 Fit       0.006369
 9202 Fit       0.005498
 9203 Fit       0.004484
 9204 Fit       0.003421
 9205 Fit       0.002401
 9206 Fit       0.001435
 9207 Fit       0.005013
 9208 Fit       0.006298
 9209 Fit       0.007092
 9210 Fit       0.007514
 9211 Fit       0.007627
 9212 Fit       0.007462
 9213 Fit       0.006651
 9214 Fit       0.005894
 9215 Fit       0.004879
 9216 Fit       0.003791
 9217 Fit       0.002799
 9218 Fit       0.005056
 9219 Fit       0.006279
 9220 Fit       0.006916
 9221 Fit       0.007018
 9222 Fit       0.006054
 9223 Fit       0.005109
 9224 Fit       0.004063
 9225 Fit       0.003950
 9226 Fit       0.005146
 9227 Fit       0.006141
 9228 Fit       0.005186
 9229 Fit      -0.001940
 9230 Fit      -0.000142
 9231 Fit      -0.002508
 9232 Fit      -0.005026
 9233 Fit       0.001342
 9234 Fit      -0.000267
 9235 Fit      -0.002830
 9236 Fit      -0.006166
 9237 Fit      -0.009131
 9238 Fit       0.002187
 9239 Fit       0.002556
 9240 Fit       0.001390
 9241 Fit      -0.000397
 9242 Fit      -0.002988
 9243 Fit      -0.006483
 9244 Fit      -0.010701
 9245 Fit       0.003299
 9246 Fit       0.003533
 9247 Fit       0.002599
 9248 Fit       0.001221
 9249 Fit      -0.000771
 9250 Fit      -0.003571
 9251 Fit      -0.007393
 9252 Fit      -0.012402
 9253 Fit       0.004692
 9254 Fit       0.004179
 9255 Fit       0.004298
 9256 Fit       0.003503
 9257 Fit       0.002361
 9258 Fit       0.000731
 9259 Fit      -0.001562
 9260 Fit      -0.004755
 9261 Fit      -0.009173
 9262 Fit       0.005366
 9263 Fit       0.004875
 9264 Fit       0.004873
 9265 Fit       0.004187
 9266 Fit       0.003235
 9267 Fit       0.001906
 9268 Fit       0.000064
 9269 Fit      -0.002475
 9270 Fit      -0.005982
 9271 Fit      -0.010878
 9272 Fit       0.005857
 9273 Fit       0.005394
 9274 Fit       0.005280
 9275 Fit       0.004631
 9276 Fit       0.003749
 9277 Fit       0.002531
 9278 Fit       0.000853
 9279 Fit      -0.001455
 9280 Fit      -0.004645
 9281 Fit      -0.009126
 9282 Fit       0.006263
 9283 Fit       0.005791
 9284 Fit       0.005545
 9285 Fit       0.004918
 9286 Fit       0.004095
 9287 Fit       0.002984
 9288 Fit       0.001477
 9289 Fit      -0.000571
 9290 Fit      -0.003369
 9291 Fit      -0.007253
 9292 Fit      -0.012802
 9293 Fit       0.006551
 9294 Fit       0.006060
 9295 Fit       0.005696
 9296 Fit       0.005056
 9297 Fit       0.004246
 9298 Fit       0.003180
 9299 Fit       0.001758
 9300 Fit      -0.000150
 9301 Fit      -0.002731
 9302 Fit      -0.006275
 9303 Fit      -0.011274
 9304 Fit       0.006247
 9305 Fit       0.005773
 9306 Fit       0.005062
 9307 Fit       0.004191
 9308 Fit       0.003068
 9309 Fit       0.001584
 9310 Fit      -0.000399
 9311 Fit      -0.003080
 9312 Fit      -0.006770
 9313 Fit       0.006412
 9314 Fit       0.005826
 9315 Fit       0.004994
 9316 Fit       0.004014
 9317 Fit       0.002777
 9318 Fit       0.001162
 9319 Fit      -0.000987
 9320 Fit      -0.003891
 9321 Fit      -0.007892
 9322 Fit       0.004937
 9323 Fit       0.003826
 9324 Fit       0.002475
 9325 Fit       0.000754
 9326 Fit      -0.001496
 9327 Fit      -0.004486
 9328 Fit      -0.008521
 9329 Fit       0.001908
 9330 Fit      -0.000108
 9331 Fit      -0.012173
 9332 Fit      -0.011320
 9333 Fit      -0.008709
 9334 Fit      -0.009372
 9335 Fit      -0.006852
 9336 Fit      -0.010989
 9337 Fit      -0.007553
 9338 Fit      -0.005182
 9339 Fit      -0.010249
 9340 Fit      -0.006761
 9341 Fit      -0.007989
 9342 Fit      -0.004913
 9343 Fit      -0.011088
 9344 Fit      -0.006947
 9345 Fit      -0.009774
 9346 Fit      -0.006134
 9347 Fit      -0.011091
 9348 Fit      -0.007136
 9349 Fit      -0.012281
 9350 Fit      -0.008229
 9351 Fit      -0.005682
 9352 Fit      -0.010205
 9353 Fit      -0.007343
 9354 Fit      -0.013297
 9355 Fit      -0.009610
 9356 Fit      -0.007743
 9357 Fit      -0.012042
 9358 Fit      -0.009483
 9359 Fit      -0.011141
 9360 Fit       0.007291
 9361 Fit       0.008111
 9362 Fit       0.009370
 9363 Fit       0.009976
 9364 Fit       0.009675
 9365 Fit       0.009924
 9366 Fit       0.010865
 9367 Fit       0.011695
 9368 Fit       0.012341
 9369 Fit       0.012620
 9370 Fit       0.012228
 9371 Fit       0.010765
 9372 Fit       0.011572
 9373 Fit       0.012229
 9374 Fit       0.013030
 9375 Fit       0.013890
 9376 Fit       0.014715
 9377 Fit       0.015369
 9378 Fit       0.015620
 9379 Fit       0.015081
 9380 Fit       0.013278
 9381 Fit       0.012652
 9382 Fit       0.012797
 9383 Fit       0.013368
 9384 Fit       0.014207
 9385 Fit       0.015218
 9386 Fit       0.016342
 9387 Fit       0.017527
 9388 Fit       0.018673
 9389 Fit       0.019544
 9390 Fit       0.019666
 9391 Fit       0.018337
 9392 Fit       0.013365
 9393 Fit       0.013511
 9394 Fit       0.014128
 9395 Fit       0.015049
 9396 Fit       0.016192
 9397 Fit       0.017537
 9398 Fit       0.019090
 9399 Fit       0.020864
 9400 Fit       0.022816
 9401 Fit       0.024729
 9402 Fit       0.013533
 9403 Fit       0.014082
 9404 Fit       0.015018
 9405 Fit       0.016239
 9406 Fit       0.017724
 9407 Fit       0.019512
 9408 Fit       0.021687
 9409 Fit       0.024368
 9410 Fit       0.027649
 9411 Fit       0.013062
 9412 Fit       0.013616
 9413 Fit       0.014580
 9414 Fit       0.015848
 9415 Fit       0.017398
 9416 Fit       0.019275
 9417 Fit       0.021591
 9418 Fit       0.024535
 9419 Fit       0.028386
 9420 Fit       0.012075
 9421 Fit       0.012867
 9422 Fit       0.014009
 9423 Fit       0.015431
 9424 Fit       0.017136
 9425 Fit       0.019188
 9426 Fit       0.021728
 9427 Fit       0.024998
 9428 Fit       0.029400
 9429 Fit       0.010920
 9430 Fit       0.012219
 9431 Fit       0.013764
 9432 Fit       0.015562
 9433 Fit       0.017678
 9434 Fit       0.020250
 9435 Fit       0.023524
 9436 Fit       0.027924
 9437 Fit       0.010009
 9438 Fit       0.011877
 9439 Fit       0.013921
 9440 Fit       0.016242
 9441 Fit       0.019000
 9442 Fit       0.022468
 9443 Fit       0.027118
 9444 Fit       0.009335
 9445 Fit       0.011703
 9446 Fit       0.014235
 9447 Fit       0.017115
 9448 Fit       0.020615
 9449 Fit       0.025177
 9450 Fit       0.010116
 9451 Fit       0.013171
 9452 Fit       0.016588
 9453 Fit       0.020739
 9454 Fit       0.015631
 9455 Fit       0.020187
 9456 Fit      -0.001378
 9457 Fit      -0.002029
 9458 Fit       0.000385
 9459 Fit       0.000972
 9460 Fit      -0.003040
 9461 Fit      -0.000332
 9462 Fit       0.001836
 9463 Fit       0.003084
 9464 Fit       0.003199
 9465 Fit      -0.005492
 9466 Fit      -0.004513
 9467 Fit      -0.001553
 9468 Fit       0.001006
 9469 Fit       0.002990
 9470 Fit       0.004384
 9471 Fit       0.005195
 9472 Fit       0.005351
 9473 Fit       0.004619
 9474 Fit      -0.007399
 9475 Fit      -0.006543
 9476 Fit      -0.003056
 9477 Fit      -0.000090
 9478 Fit       0.002288
 9479 Fit       0.004131
 9480 Fit       0.005527
 9481 Fit       0.006551
 9482 Fit       0.007228
 9483 Fit       0.007469
 9484 Fit      -0.010206
 9485 Fit      -0.009193
 9486 Fit      -0.004889
 9487 Fit      -0.001389
 9488 Fit       0.001376
 9489 Fit       0.003541
 9490 Fit       0.005243
 9491 Fit       0.006602
 9492 Fit       0.007725
 9493 Fit       0.008684
 9494 Fit       0.009482
 9495 Fit       0.009958
 9496 Fit      -0.007165
 9497 Fit      -0.003077
 9498 Fit       0.000076
 9499 Fit       0.002528
 9500 Fit       0.004462
 9501 Fit       0.006028
 9502 Fit       0.007350
 9503 Fit       0.008544
 9504 Fit       0.009716
 9505 Fit       0.010952
 9506 Fit       0.012261
 9507 Fit      -0.009458
 9508 Fit      -0.004598
 9509 Fit      -0.000996
 9510 Fit       0.001738
 9511 Fit       0.003869
 9512 Fit       0.005583
 9513 Fit       0.007031
 9514 Fit       0.008350
 9515 Fit       0.009681
 9516 Fit       0.011178
 9517 Fit       0.013019
 9518 Fit      -0.011846
 9519 Fit      -0.006288
 9520 Fit      -0.002298
 9521 Fit       0.000674
 9522 Fit       0.002964
 9523 Fit       0.004791
 9524 Fit       0.006321
 9525 Fit       0.007696
 9526 Fit       0.009063
 9527 Fit       0.010591
 9528 Fit       0.012508
 9529 Fit      -0.007720
 9530 Fit      -0.003446
 9531 Fit      -0.000311
 9532 Fit       0.002079
 9533 Fit       0.003974
 9534 Fit       0.005549
 9535 Fit       0.006954
 9536 Fit       0.008336
 9537 Fit       0.009869
 9538 Fit       0.011791
 9539 Fit      -0.008416
 9540 Fit      -0.004028
 9541 Fit      -0.000851
 9542 Fit       0.001550
 9543 Fit       0.003445
 9544 Fit       0.005023
 9545 Fit       0.006448
 9546 Fit       0.007884
 9547 Fit       0.009536
 9548 Fit      -0.008558
 9549 Fit      -0.004299
 9550 Fit      -0.001225
 9551 Fit       0.001091
 9552 Fit       0.002917
 9553 Fit       0.004450
 9554 Fit       0.005861
 9555 Fit       0.007337
 9556 Fit      -0.008524
 9557 Fit      -0.004634
 9558 Fit      -0.001796
 9559 Fit       0.000349
 9560 Fit       0.002036
 9561 Fit       0.003445
 9562 Fit      -0.002040
 -----------------------------------------------------------------
 Leave Link  602 at Thu Jun 16 12:20:25 2016, MaxMem=   33554432 cpu:       4.3

 Test job not archived.
 1\1\GINC-NODE36\FOpt\RHF\6-31G(d)\C12H14N4O2S1\DAVE\16-Jun-2016\0\\#HF
 /6-31G* SCF=tight Test Pop=MK iop(6/33=2) iop(6/42=6) opt\\remark line
  goes here\\0,1\C,-4.6394633454,9.4055225149,13.0505618225\C,-3.306480
 0031,9.1316515366,12.8640675247\C,-3.3184813153,7.4887152576,14.636557
 5001\C,-5.3383355477,8.7202346205,14.0387965447\C,-2.6376566133,8.1781
 882832,13.6487996395\C,-4.6661573079,7.7790343104,14.808420253\C,-7.04
 79399497,8.1335599421,15.2847429557\C,-0.3924884985,7.1054023317,13.91
 85376632\C,1.7984053613,4.2865531378,12.3703339727\C,-8.4413066171,8.0
 899766403,15.8334368442\C,1.0150415662,7.2077289854,13.3526090589\C,1.
 9535499688,6.1500911759,13.928162596\N,-6.6826130744,8.8921586924,14.3
 379097128\N,1.2228074851,3.0611962545,12.141440572\N,-1.2691824553,7.9
 877843321,13.3697893713\N,1.5644526104,4.7928702931,13.6140986012\O,-0
 .6824034318,6.3161081058,14.7777047927\O,2.4405946575,4.861958922,11.5
 309585904\S,-5.7910867955,7.0907673805,15.9528989021\H,0.7654392573,4.
 4588172106,14.1064267918\H,-0.9036469684,8.5732197542,12.6533060976\H,
 1.0817086363,2.4556441785,12.9194387611\H,1.5592961893,2.6107782263,11
 .3192655438\H,2.9472397734,6.3130627125,13.5393745375\H,1.9923087255,6
 .238836841,15.0049390192\H,0.9834717089,7.1163602959,12.2717115586\H,1
 .4011894519,8.2001970054,13.5762321832\H,-8.8682415705,7.0983633343,15
 .7268593934\H,-8.4501614407,8.3456675931,16.8877055358\H,-9.0510104647
 ,8.7990306237,15.2911129431\H,-2.820792906,6.7606622243,15.2393005855\
 H,-2.7623483999,9.6580171034,12.0989196003\H,-5.1447086866,10.13584018
 01,12.4465805314\\Version=EM64L-G09RevC.01\State=1-A\HF=-1227.676148\R
 MSD=5.032e-09\RMSF=4.760e-06\Dipole=-0.2583889,0.0040949,0.3200528\Qua
 drupole=-3.8818761,9.4113296,-5.5294534,2.5434906,2.0490097,-3.7133514
 \PG=C01 [X(C12H14N4O2S1)]\\@


 IF YOU PERCEIVE THAT THERE ARE FOUR POSSIBLE WAYS IN
 WHICH A PROCEDURE CAN GO WRONG AND CIRCUMVENT THESE, 
 THEN A FIFTH WAY WILL DEVELOP.

                              -- MURPHY'S TWELFTH LAW
 Job cpu time:  0 days  1 hours 11 minutes 36.1 seconds.
 File lengths (MBytes):  RWF=     75 Int=      0 D2E=      0 Chk=      9 Scr=      1
 Normal termination of Gaussian 09 at Thu Jun 16 12:20:26 2016.
