 Entering Gaussian System, Link 0=/share/apps/g03/g03
 Initial command:
 /share/apps//g03/l1.exe /state/partition1/ante-gauss.5/Gau-871.inp -scrdir=/state/partition1/ante-gauss.5/
 Entering Link 1 = /share/apps//g03/l1.exe PID=       873.
  
 Copyright (c) 1988,1990,1992,1993,1995,1998,2003,2004, Gaussian, Inc.
                  All Rights Reserved.
  
 This is the Gaussian(R) 03 program.  It is based on the
 the Gaussian(R) 98 system (copyright 1998, Gaussian, Inc.),
 the Gaussian(R) 94 system (copyright 1995, Gaussian, Inc.),
 the Gaussian 92(TM) system (copyright 1992, Gaussian, Inc.),
 the Gaussian 90(TM) system (copyright 1990, Gaussian, Inc.),
 the Gaussian 88(TM) system (copyright 1988, Gaussian, Inc.),
 the Gaussian 86(TM) system (copyright 1986, Carnegie Mellon
 University), and the Gaussian 82(TM) system (copyright 1983,
 Carnegie Mellon University). Gaussian is a federally registered
 trademark of Gaussian, Inc.
  
 This software contains proprietary and confidential information,
 including trade secrets, belonging to Gaussian, Inc.
  
 This software is provided under written license and may be
 used, copied, transmitted, or stored only in accord with that
 written license.
  
 The following legend is applicable only to US Government
 contracts under FAR:
  
                    RESTRICTED RIGHTS LEGEND
  
 Use, reproduction and disclosure by the US Government is
 subject to restrictions as set forth in subparagraphs (a)
 and (c) of the Commercial Computer Software - Restricted
 Rights clause in FAR 52.227-19.
  
 Gaussian, Inc.
 340 Quinnipiac St., Bldg. 40, Wallingford CT 06492
  
  
 ---------------------------------------------------------------
 Warning -- This program may not be used in any manner that
 competes with the business of Gaussian, Inc. or will provide
 assistance to any competitor of Gaussian, Inc.  The licensee
 of this program is prohibited from giving any competitor of
 Gaussian, Inc. access to this program.  By using this program,
 the user acknowledges that Gaussian, Inc. is engaged in the
 business of creating and licensing software in the field of
 computational chemistry and represents and warrants to the
 licensee that it is not a competitor of Gaussian, Inc. and that
 it will not use this program in any manner prohibited above.
 ---------------------------------------------------------------
  

 Cite this work as:
 Gaussian 03, Revision D.02,
 M. J. Frisch, G. W. Trucks, H. B. Schlegel, G. E. Scuseria, 
 M. A. Robb, J. R. Cheeseman, J. A. Montgomery, Jr., T. Vreven, 
 K. N. Kudin, J. C. Burant, J. M. Millam, S. S. Iyengar, J. Tomasi, 
 V. Barone, B. Mennucci, M. Cossi, G. Scalmani, N. Rega, 
 G. A. Petersson, H. Nakatsuji, M. Hada, M. Ehara, K. Toyota, 
 R. Fukuda, J. Hasegawa, M. Ishida, T. Nakajima, Y. Honda, O. Kitao, 
 H. Nakai, M. Klene, X. Li, J. E. Knox, H. P. Hratchian, J. B. Cross, 
 V. Bakken, C. Adamo, J. Jaramillo, R. Gomperts, R. E. Stratmann, 
 O. Yazyev, A. J. Austin, R. Cammi, C. Pomelli, J. W. Ochterski, 
 P. Y. Ayala, K. Morokuma, G. A. Voth, P. Salvador, J. J. Dannenberg, 
 V. G. Zakrzewski, S. Dapprich, A. D. Daniels, M. C. Strain, 
 O. Farkas, D. K. Malick, A. D. Rabuck, K. Raghavachari, 
 J. B. Foresman, J. V. Ortiz, Q. Cui, A. G. Baboul, S. Clifford, 
 J. Cioslowski, B. B. Stefanov, G. Liu, A. Liashenko, P. Piskorz, 
 I. Komaromi, R. L. Martin, D. J. Fox, T. Keith, M. A. Al-Laham, 
 C. Y. Peng, A. Nanayakkara, M. Challacombe, P. M. W. Gill, 
 B. Johnson, W. Chen, M. W. Wong, C. Gonzalez, and J. A. Pople, 
 Gaussian, Inc., Wallingford CT, 2004.
 
 ******************************************
 Gaussian 03:  AM64L-G03RevD.02  1-Mar-2006
                22-Jun-2016 
 ******************************************
 %chk=molecule
 ------------------------------------------------------------
 #HF/6-31G* SCF=tight Test Pop=MK iop(6/33=2) iop(6/42=6) opt
 ------------------------------------------------------------
 1/18=20,38=1/1,3;
 2/9=110,17=6,18=5,40=1/2;
 3/5=1,6=6,7=1,11=9,16=1,25=1,30=1/1,2,3;
 4//1;
 5/5=2,32=2,38=5/2;
 6/7=2,8=2,9=2,10=2,15=8,20=1,28=1,33=2,42=6/1,2;
 7//1,2,3,16;
 1/18=20/3(3);
 2/9=110/2;
 6/7=2,8=2,9=2,10=2,15=8,19=2,20=1,28=1,33=2,42=6/1,2;
 99//99;
 2/9=110/2;
 3/5=1,6=6,7=1,11=9,16=1,25=1,30=1/1,2,3;
 4/5=5,16=3/1;
 5/5=2,32=2,38=5/2;
 7//1,2,3,16;
 1/18=20/3(-5);
 2/9=110/2;
 6/7=2,8=2,9=2,10=2,15=8,19=2,20=1,28=1,33=2,42=6/1,2;
 99/9=1/99;
 ---------------------
 remark line goes here
 ---------------------
 Symbolic Z-matrix:
 Charge = -1 Multiplicity = 1
 C                    -4.518     9.237     12.885 
 C                    -3.159     8.97      12.794 
 C                    -3.279     7.595     14.786 
 C                    -5.273     8.687     13.922 
 C                    -2.529     8.157     13.736 
 C                    -4.634     7.867     14.855 
 C                    -7.015     8.227     15.176 
 C                    -9.482     8.389     19.876 
 C                    -8.798     8.642     18.519 
 C                    -0.452     6.796     14.011 
 C                     3.06      5.486     13.871 
 C                    -8.649     7.57      17.423 
 C                     1.016     6.994     14.214 
 C                     1.844     6.122     13.268 
 N                    -6.637     8.87      14.13 
 N                    -1.127     7.911     13.602 
 O                    -1.006     5.698     14.204 
 O                     3.541     5.819     14.951 
 O                     3.574     4.548     13.119 
 S                    -5.786     7.32      16.032 
 S                    -8.707     8.224     15.729 
 H                    -7.776     8.973     18.756 
 H                    -9.353     9.47      18.054 
 H                    -0.585     8.629     13.165 
 H                     1.194     5.318     12.892 
 H                     2.173     6.751     12.428 
 H                     1.262     8.05      14.031 
 H                     1.27      6.733     15.252 
 H                    -9.465     6.842     17.54 
 H                    -7.683     7.064     17.565 
 H                    -10.526    8.087     19.71 
 H                    -8.949     7.59      20.411 
 H                    -9.458     9.311     20.476 
 H                    -2.804     6.961     15.526 
 H                    -2.581     9.397     11.982 
 H                    -4.994     9.875     12.149 
 

 GradGradGradGradGradGradGradGradGradGradGradGradGradGradGradGradGradGrad
 Berny optimization.
 Initialization pass.
                           ----------------------------
                           !    Initial Parameters    !
                           ! (Angstroms and Degrees)  !
 --------------------------                            --------------------------
 ! Name  Definition              Value          Derivative Info.                !
 --------------------------------------------------------------------------------
 ! R1    R(1,2)                  1.388          estimate D2E/DX2                !
 ! R2    R(1,4)                  1.3957         estimate D2E/DX2                !
 ! R3    R(1,36)                 1.0841         estimate D2E/DX2                !
 ! R4    R(2,5)                  1.3947         estimate D2E/DX2                !
 ! R5    R(2,35)                 1.0843         estimate D2E/DX2                !
 ! R6    R(3,5)                  1.4074         estimate D2E/DX2                !
 ! R7    R(3,6)                  1.3838         estimate D2E/DX2                !
 ! R8    R(3,34)                 1.0841         estimate D2E/DX2                !
 ! R9    R(4,6)                  1.3969         estimate D2E/DX2                !
 ! R10   R(4,15)                 1.3919         estimate D2E/DX2                !
 ! R11   R(5,16)                 1.4297         estimate D2E/DX2                !
 ! R12   R(6,20)                 1.7354         estimate D2E/DX2                !
 ! R13   R(7,15)                 1.2847         estimate D2E/DX2                !
 ! R14   R(7,20)                 1.751          estimate D2E/DX2                !
 ! R15   R(7,21)                 1.7801         estimate D2E/DX2                !
 ! R16   R(8,9)                  1.5406         estimate D2E/DX2                !
 ! R17   R(8,31)                 1.0994         estimate D2E/DX2                !
 ! R18   R(8,32)                 1.0994         estimate D2E/DX2                !
 ! R19   R(8,33)                 1.1003         estimate D2E/DX2                !
 ! R20   R(9,12)                 1.5403         estimate D2E/DX2                !
 ! R21   R(9,22)                 1.1001         estimate D2E/DX2                !
 ! R22   R(9,23)                 1.0999         estimate D2E/DX2                !
 ! R23   R(10,13)                1.4951         estimate D2E/DX2                !
 ! R24   R(10,16)                1.3661         estimate D2E/DX2                !
 ! R25   R(10,17)                1.2449         estimate D2E/DX2                !
 ! R26   R(11,14)                1.4989         estimate D2E/DX2                !
 ! R27   R(11,18)                1.2283         estimate D2E/DX2                !
 ! R28   R(11,19)                1.3075         estimate D2E/DX2                !
 ! R29   R(12,21)                1.8168         estimate D2E/DX2                !
 ! R30   R(12,29)                1.0998         estimate D2E/DX2                !
 ! R31   R(12,30)                1.0997         estimate D2E/DX2                !
 ! R32   R(13,14)                1.53           estimate D2E/DX2                !
 ! R33   R(13,27)                1.0996         estimate D2E/DX2                !
 ! R34   R(13,28)                1.1            estimate D2E/DX2                !
 ! R35   R(14,25)                1.1001         estimate D2E/DX2                !
 ! R36   R(14,26)                1.0998         estimate D2E/DX2                !
 ! R37   R(16,24)                1.0001         estimate D2E/DX2                !
 ! A1    A(2,1,4)              120.1706         estimate D2E/DX2                !
 ! A2    A(2,1,36)             119.9074         estimate D2E/DX2                !
 ! A3    A(4,1,36)             119.922          estimate D2E/DX2                !
 ! A4    A(1,2,5)              120.6725         estimate D2E/DX2                !
 ! A5    A(1,2,35)             119.6876         estimate D2E/DX2                !
 ! A6    A(5,2,35)             119.6399         estimate D2E/DX2                !
 ! A7    A(5,3,6)              118.7197         estimate D2E/DX2                !
 ! A8    A(5,3,34)             120.6174         estimate D2E/DX2                !
 ! A9    A(6,3,34)             120.6629         estimate D2E/DX2                !
 ! A10   A(1,4,6)              118.6952         estimate D2E/DX2                !
 ! A11   A(1,4,15)             126.1115         estimate D2E/DX2                !
 ! A12   A(6,4,15)             115.193          estimate D2E/DX2                !
 ! A13   A(2,5,3)              119.7316         estimate D2E/DX2                !
 ! A14   A(2,5,16)             118.6818         estimate D2E/DX2                !
 ! A15   A(3,5,16)             121.5859         estimate D2E/DX2                !
 ! A16   A(3,6,4)              122.0079         estimate D2E/DX2                !
 ! A17   A(3,6,20)             128.4542         estimate D2E/DX2                !
 ! A18   A(4,6,20)             109.5343         estimate D2E/DX2                !
 ! A19   A(15,7,20)            116.7941         estimate D2E/DX2                !
 ! A20   A(15,7,21)            122.2393         estimate D2E/DX2                !
 ! A21   A(20,7,21)            120.9591         estimate D2E/DX2                !
 ! A22   A(9,8,31)             109.4954         estimate D2E/DX2                !
 ! A23   A(9,8,32)             109.4353         estimate D2E/DX2                !
 ! A24   A(9,8,33)             109.4531         estimate D2E/DX2                !
 ! A25   A(31,8,32)            109.5246         estimate D2E/DX2                !
 ! A26   A(31,8,33)            109.4649         estimate D2E/DX2                !
 ! A27   A(32,8,33)            109.454          estimate D2E/DX2                !
 ! A28   A(8,9,12)             123.7392         estimate D2E/DX2                !
 ! A29   A(8,9,22)             105.7906         estimate D2E/DX2                !
 ! A30   A(8,9,23)             105.7821         estimate D2E/DX2                !
 ! A31   A(12,9,22)            105.8325         estimate D2E/DX2                !
 ! A32   A(12,9,23)            105.7776         estimate D2E/DX2                !
 ! A33   A(22,9,23)            109.4715         estimate D2E/DX2                !
 ! A34   A(13,10,16)           114.6902         estimate D2E/DX2                !
 ! A35   A(13,10,17)           122.1876         estimate D2E/DX2                !
 ! A36   A(16,10,17)           123.1222         estimate D2E/DX2                !
 ! A37   A(14,11,18)           123.8061         estimate D2E/DX2                !
 ! A38   A(14,11,19)           113.0753         estimate D2E/DX2                !
 ! A39   A(18,11,19)           123.1112         estimate D2E/DX2                !
 ! A40   A(9,12,21)            114.1943         estimate D2E/DX2                !
 ! A41   A(9,12,29)            108.2533         estimate D2E/DX2                !
 ! A42   A(9,12,30)            108.2594         estimate D2E/DX2                !
 ! A43   A(21,12,29)           108.2879         estimate D2E/DX2                !
 ! A44   A(21,12,30)           108.3049         estimate D2E/DX2                !
 ! A45   A(29,12,30)           109.4776         estimate D2E/DX2                !
 ! A46   A(10,13,14)           111.8347         estimate D2E/DX2                !
 ! A47   A(10,13,27)           108.9193         estimate D2E/DX2                !
 ! A48   A(10,13,28)           108.869          estimate D2E/DX2                !
 ! A49   A(14,13,27)           108.8665         estimate D2E/DX2                !
 ! A50   A(14,13,28)           108.8595         estimate D2E/DX2                !
 ! A51   A(27,13,28)           109.4653         estimate D2E/DX2                !
 ! A52   A(11,14,13)           115.6023         estimate D2E/DX2                !
 ! A53   A(11,14,25)           107.8617         estimate D2E/DX2                !
 ! A54   A(11,14,26)           107.894          estimate D2E/DX2                !
 ! A55   A(13,14,25)           107.9444         estimate D2E/DX2                !
 ! A56   A(13,14,26)           107.9499         estimate D2E/DX2                !
 ! A57   A(25,14,26)           109.4928         estimate D2E/DX2                !
 ! A58   A(4,15,7)             110.1338         estimate D2E/DX2                !
 ! A59   A(5,16,10)            126.6497         estimate D2E/DX2                !
 ! A60   A(5,16,24)            116.6702         estimate D2E/DX2                !
 ! A61   A(10,16,24)           116.6801         estimate D2E/DX2                !
 ! A62   A(6,20,7)              88.3436         estimate D2E/DX2                !
 ! A63   A(7,21,12)            105.0657         estimate D2E/DX2                !
 ! D1    D(4,1,2,5)             -0.2871         estimate D2E/DX2                !
 ! D2    D(4,1,2,35)           179.665          estimate D2E/DX2                !
 ! D3    D(36,1,2,5)           179.6699         estimate D2E/DX2                !
 ! D4    D(36,1,2,35)           -0.378          estimate D2E/DX2                !
 ! D5    D(2,1,4,6)             -0.1373         estimate D2E/DX2                !
 ! D6    D(2,1,4,15)          -179.9025         estimate D2E/DX2                !
 ! D7    D(36,1,4,6)           179.9057         estimate D2E/DX2                !
 ! D8    D(36,1,4,15)            0.1405         estimate D2E/DX2                !
 ! D9    D(1,2,5,3)              0.3467         estimate D2E/DX2                !
 ! D10   D(1,2,5,16)          -179.9504         estimate D2E/DX2                !
 ! D11   D(35,2,5,3)          -179.6054         estimate D2E/DX2                !
 ! D12   D(35,2,5,16)            0.0975         estimate D2E/DX2                !
 ! D13   D(6,3,5,2)              0.0209         estimate D2E/DX2                !
 ! D14   D(6,3,5,16)          -179.6731         estimate D2E/DX2                !
 ! D15   D(34,3,5,2)           179.9973         estimate D2E/DX2                !
 ! D16   D(34,3,5,16)            0.3032         estimate D2E/DX2                !
 ! D17   D(5,3,6,4)             -0.4566         estimate D2E/DX2                !
 ! D18   D(5,3,6,20)          -179.6844         estimate D2E/DX2                !
 ! D19   D(34,3,6,4)           179.567          estimate D2E/DX2                !
 ! D20   D(34,3,6,20)            0.3392         estimate D2E/DX2                !
 ! D21   D(1,4,6,3)              0.5164         estimate D2E/DX2                !
 ! D22   D(1,4,6,20)           179.8748         estimate D2E/DX2                !
 ! D23   D(15,4,6,3)          -179.6933         estimate D2E/DX2                !
 ! D24   D(15,4,6,20)           -0.3349         estimate D2E/DX2                !
 ! D25   D(1,4,15,7)          -179.8267         estimate D2E/DX2                !
 ! D26   D(6,4,15,7)             0.401          estimate D2E/DX2                !
 ! D27   D(2,5,16,10)         -150.8492         estimate D2E/DX2                !
 ! D28   D(2,5,16,24)           29.2163         estimate D2E/DX2                !
 ! D29   D(3,5,16,10)           28.8479         estimate D2E/DX2                !
 ! D30   D(3,5,16,24)         -151.0865         estimate D2E/DX2                !
 ! D31   D(3,6,20,7)           179.4447         estimate D2E/DX2                !
 ! D32   D(4,6,20,7)             0.1395         estimate D2E/DX2                !
 ! D33   D(20,7,15,4)           -0.2872         estimate D2E/DX2                !
 ! D34   D(21,7,15,4)         -179.2983         estimate D2E/DX2                !
 ! D35   D(15,7,20,6)            0.0886         estimate D2E/DX2                !
 ! D36   D(21,7,20,6)          179.1132         estimate D2E/DX2                !
 ! D37   D(15,7,21,12)        -165.6549         estimate D2E/DX2                !
 ! D38   D(20,7,21,12)          15.3744         estimate D2E/DX2                !
 ! D39   D(31,8,9,12)          -59.9863         estimate D2E/DX2                !
 ! D40   D(31,8,9,22)          178.0197         estimate D2E/DX2                !
 ! D41   D(31,8,9,23)           61.9217         estimate D2E/DX2                !
 ! D42   D(32,8,9,12)           60.0719         estimate D2E/DX2                !
 ! D43   D(32,8,9,22)          -61.9221         estimate D2E/DX2                !
 ! D44   D(32,8,9,23)         -178.0201         estimate D2E/DX2                !
 ! D45   D(33,8,9,12)         -179.9823         estimate D2E/DX2                !
 ! D46   D(33,8,9,22)           58.0238         estimate D2E/DX2                !
 ! D47   D(33,8,9,23)          -58.0743         estimate D2E/DX2                !
 ! D48   D(8,9,12,21)          147.3454         estimate D2E/DX2                !
 ! D49   D(8,9,12,29)           26.6534         estimate D2E/DX2                !
 ! D50   D(8,9,12,30)          -91.9366         estimate D2E/DX2                !
 ! D51   D(22,9,12,21)         -90.6797         estimate D2E/DX2                !
 ! D52   D(22,9,12,29)         148.6283         estimate D2E/DX2                !
 ! D53   D(22,9,12,30)          30.0384         estimate D2E/DX2                !
 ! D54   D(23,9,12,21)          25.4353         estimate D2E/DX2                !
 ! D55   D(23,9,12,29)         -95.2567         estimate D2E/DX2                !
 ! D56   D(23,9,12,30)         146.1534         estimate D2E/DX2                !
 ! D57   D(16,10,13,14)       -117.7054         estimate D2E/DX2                !
 ! D58   D(16,10,13,27)          2.6645         estimate D2E/DX2                !
 ! D59   D(16,10,13,28)        121.9668         estimate D2E/DX2                !
 ! D60   D(17,10,13,14)         62.3872         estimate D2E/DX2                !
 ! D61   D(17,10,13,27)       -177.2428         estimate D2E/DX2                !
 ! D62   D(17,10,13,28)        -57.9406         estimate D2E/DX2                !
 ! D63   D(13,10,16,5)        -158.4432         estimate D2E/DX2                !
 ! D64   D(13,10,16,24)         21.4912         estimate D2E/DX2                !
 ! D65   D(17,10,16,5)          21.4632         estimate D2E/DX2                !
 ! D66   D(17,10,16,24)       -158.6024         estimate D2E/DX2                !
 ! D67   D(18,11,14,13)        -14.1274         estimate D2E/DX2                !
 ! D68   D(18,11,14,25)       -135.0147         estimate D2E/DX2                !
 ! D69   D(18,11,14,26)        106.7914         estimate D2E/DX2                !
 ! D70   D(19,11,14,13)        166.8387         estimate D2E/DX2                !
 ! D71   D(19,11,14,25)         45.9513         estimate D2E/DX2                !
 ! D72   D(19,11,14,26)        -72.2425         estimate D2E/DX2                !
 ! D73   D(9,12,21,7)          103.4781         estimate D2E/DX2                !
 ! D74   D(29,12,21,7)        -135.8492         estimate D2E/DX2                !
 ! D75   D(30,12,21,7)         -17.2146         estimate D2E/DX2                !
 ! D76   D(10,13,14,11)       -139.2567         estimate D2E/DX2                !
 ! D77   D(10,13,14,25)        -18.4141         estimate D2E/DX2                !
 ! D78   D(10,13,14,26)         99.8547         estimate D2E/DX2                !
 ! D79   D(27,13,14,11)        100.3425         estimate D2E/DX2                !
 ! D80   D(27,13,14,25)       -138.8149         estimate D2E/DX2                !
 ! D81   D(27,13,14,26)        -20.5461         estimate D2E/DX2                !
 ! D82   D(28,13,14,11)        -18.9233         estimate D2E/DX2                !
 ! D83   D(28,13,14,25)        101.9193         estimate D2E/DX2                !
 ! D84   D(28,13,14,26)       -139.8119         estimate D2E/DX2                !
 --------------------------------------------------------------------------------
 Trust Radius=3.00D-01 FncErr=1.00D-07 GrdErr=1.00D-07
 Number of steps in this run= 194 maximum allowed number of steps= 216.
 GradGradGradGradGradGradGradGradGradGradGradGradGradGradGradGradGradGrad

                          Input orientation:                          
 ---------------------------------------------------------------------
 Center     Atomic     Atomic              Coordinates (Angstroms)
 Number     Number      Type              X           Y           Z
 ---------------------------------------------------------------------
    1          6             0       -4.518000    9.237000   12.885000
    2          6             0       -3.159000    8.970000   12.794000
    3          6             0       -3.279000    7.595000   14.786000
    4          6             0       -5.273000    8.687000   13.922000
    5          6             0       -2.529000    8.157000   13.736000
    6          6             0       -4.634000    7.867000   14.855000
    7          6             0       -7.015000    8.227000   15.176000
    8          6             0       -9.482000    8.389000   19.876000
    9          6             0       -8.798000    8.642000   18.519000
   10          6             0       -0.452000    6.796000   14.011000
   11          6             0        3.060000    5.486000   13.871000
   12          6             0       -8.649000    7.570000   17.423000
   13          6             0        1.016000    6.994000   14.214000
   14          6             0        1.844000    6.122000   13.268000
   15          7             0       -6.637000    8.870000   14.130000
   16          7             0       -1.127000    7.911000   13.602000
   17          8             0       -1.006000    5.698000   14.204000
   18          8             0        3.541000    5.819000   14.951000
   19          8             0        3.574000    4.548000   13.119000
   20         16             0       -5.786000    7.320000   16.032000
   21         16             0       -8.707000    8.224000   15.729000
   22          1             0       -7.776000    8.973000   18.756000
   23          1             0       -9.353000    9.470000   18.054000
   24          1             0       -0.585000    8.629000   13.165000
   25          1             0        1.194000    5.318000   12.892000
   26          1             0        2.173000    6.751000   12.428000
   27          1             0        1.262000    8.050000   14.031000
   28          1             0        1.270000    6.733000   15.252000
   29          1             0       -9.465000    6.842000   17.540000
   30          1             0       -7.683000    7.064000   17.565000
   31          1             0      -10.526000    8.087000   19.710000
   32          1             0       -8.949000    7.590000   20.411000
   33          1             0       -9.458000    9.311000   20.476000
   34          1             0       -2.804000    6.961000   15.526000
   35          1             0       -2.581000    9.397000   11.982000
   36          1             0       -4.994000    9.875000   12.149000
 ---------------------------------------------------------------------
                    Distance matrix (angstroms):
                    1          2          3          4          5
     1  C    0.000000
     2  C    1.387966   0.000000
     3  C    2.800908   2.423446   0.000000
     4  C    1.395670   2.412772   2.432076   0.000000
     5  C    2.418000   1.394716   1.407425   2.800898   0.000000
     6  C    2.402344   2.764047   1.383752   1.396857   2.401517
     7  C    3.536070   4.592898   3.809097   2.195149   4.711974
     8  C    8.615943   9.511709   8.063234   7.297575   9.278881
     9  C    7.100309   8.042483   6.744691   5.793104   7.900169
    10  C    4.874291   3.679024   3.038249   5.179367   2.498374
    11  C    8.512830   7.209310   6.742998   8.926807   6.195917
    12  C    6.359048   7.316266   5.982583   4.990197   7.168887
    13  C    6.117389   4.832349   4.374404   6.519435   3.761393
    14  C    7.094009   5.776313   5.542489   7.593328   4.845965
    15  N    2.484930   3.727114   3.651318   1.391851   4.187991
    16  N    3.710963   2.429685   2.476452   4.230117   1.429712
    17  O    5.157366   4.162871   3.017261   5.217368   2.930057
    18  O    8.994363   7.711773   7.049383   9.325817   6.617203
    19  O    9.355316   8.061823   7.682884   9.800283   7.117034
    20  S    3.896963   4.484225   2.813039   2.565922   4.071883
    21  S    5.163548   6.320684   5.545095   3.907937   6.491858
    22  H    6.719591   7.540699   6.154900   5.451088   7.307343
    23  H    7.081672   8.141452   7.147652   5.859429   8.181447
    24  H    3.989555   2.622861   3.309748   4.749080   2.080375
    25  H    6.927161   5.682897   5.364671   7.364316   4.757414
    26  H    7.152519   5.786894   5.999734   7.837286   5.079026
    27  H    6.010881   4.682073   4.625768   6.566877   3.803966
    28  H    6.735997   5.537326   4.653343   6.956857   4.331101
    29  H    7.202629   8.174261   6.813085   5.836678   8.019210
    30  H    6.053227   6.845572   5.234503   4.659794   6.513034
    31  H    9.165107  10.143147   8.775355   7.839321   9.982264
    32  H    8.887466   9.666809   7.986836   7.538137   9.278659
    33  H    9.057172   9.940161   8.573261   7.801187   9.735007
    34  H    3.884952   3.409682   1.084058   3.412895   2.170286
    35  H    2.143123   1.084323   3.405411   3.393312   2.148679
    36  H    1.084120   2.145291   3.885022   2.152374   3.397987
                    6          7          8          9         10
     6  C    0.000000
     7  C    2.429362   0.000000
     8  C    6.999002   5.310587   0.000000
     9  C    5.600394   3.811425   1.540556   0.000000
    10  C    4.398693   6.817474  10.884704   9.663617   0.000000
    11  C    8.113880  10.522439  14.205252  13.121601   3.750979
    12  C    4.775255   2.854928   2.716958   1.540325   8.912442
    13  C    5.752870   8.181852  12.008841  10.842671   1.495138
    14  C    6.894061   9.303406  13.307262  12.131594   2.505582
    15  N    2.354494   1.284698   6.429767   4.897471   6.524558
    16  N    3.724378   6.102940  10.459330   9.140869   1.366064
    17  O    4.276768   6.591563  10.547779   9.380918   1.244897
    18  O    8.428176  10.829507  14.158356  13.151079   4.216892
    19  O    9.022235  11.397070  15.194389  14.106283   4.696578
    20  S    1.735408   1.750950   5.438705   4.123712   5.728051
    21  S    4.180987   1.780079   4.222021   2.822606   8.551943
    22  H    5.129639   3.735243   2.122709   1.100097   8.994183
    23  H    5.922176   3.910777   2.122472   1.099925  10.135281
    24  H    4.453217   6.749120  11.146826   9.804022   2.023189
    25  H    6.657053   9.003700  13.121901  11.939521   2.479105
    26  H    7.312389   9.703063  13.928201  12.690114   3.065704
    27  H    5.956113   8.357696  12.235705  11.031600   2.123844
    28  H    6.025013   8.418969  11.820711  10.755566   2.123519
    29  H    5.621246   3.675489   2.801855   2.154839   9.679366
    30  H    4.157561   2.739729   3.214459   2.154861   8.061644
    31  H    7.637741   5.736190   1.099407   2.170827  11.646062
    32  H    7.040248   5.617059   1.099416   2.170062  10.667214
    33  H    7.546639   5.935765   1.100300   2.170947  11.367915
    34  H    2.149413   4.411097   8.096750   6.907376   2.802562
    35  H    3.848355   5.588461  10.533523   9.052816   3.926154
    36  H    3.388820   3.995382   9.058525   7.521144   5.794571
                   11         12         13         14         15
    11  C    0.000000
    12  C   12.412109   0.000000
    13  C    2.563133  10.200082   0.000000
    14  C    1.498920  11.378215   1.529995   0.000000
    15  N   10.273770   4.072099   7.880028   8.956668   0.000000
    16  N    4.846025   8.443744   2.409955   3.484095   5.617701
    17  O    4.085118   8.501870   2.401708   3.029583   6.463375
    18  O    1.228271  12.560768   2.880871   2.409171  10.657126
    19  O    1.307495  13.306338   3.704768   2.343625  11.134017
    20  S    9.288982   3.192828   7.048305   8.203158   2.596980
    21  S   12.223383   1.816787   9.916897  11.036237   2.694256
    22  H   12.387142   2.123070  10.091852  11.436378   4.765271
    23  H   13.691323   2.122210  11.331034  12.628844   4.809827
    24  H    4.864454   9.180422   2.517306   3.492234   6.133189
    25  H    2.113911  11.067344   2.142042   1.100133   8.687572
    26  H    2.114058  11.947237   2.141844   1.099765   9.219711
    27  H    3.135682  10.486371   1.099609   2.153620   7.942065
    28  H    2.581912  10.188247   1.100037   2.153846   8.267182
    29  H   13.121582   1.099786  10.997124  12.110403   4.872214
    30  H   11.469428   1.099707   9.322376  10.493584   4.019325
    31  H   15.014610   3.003463  12.830371  14.084654   6.846445
    32  H   13.835263   3.003089  11.749862  13.025603   6.814302
    33  H   14.661411   3.606435  12.421184  13.778976   6.958753
    34  H    6.269063   6.175234   4.039162   5.235111   4.503886
    35  H    7.119348   8.352427   4.867714   5.653322   4.619823
    36  H    9.332498   6.818147   6.977427   7.880064   2.762940
                   16         17         18         19         20
    16  N    0.000000
    17  O    2.296609   0.000000
    18  O    5.290226   4.609540   0.000000
    19  O    5.800212   4.845217   2.229967   0.000000
    20  S    5.287765   5.368507   9.508653  10.187205   0.000000
    21  S    7.878991   8.246921  12.506111  13.082356   3.072664
    22  H    8.479432   8.790861  12.349098  13.423073   3.756685
    23  H    9.482503   9.935939  13.755495  14.686308   4.629738
    24  H    1.000128   3.138076   5.301865   5.827002   6.081412
    25  H    3.551731   2.589545   3.162102   2.511738   7.911258
    26  H    3.689699   3.790650   3.017545   2.700646   8.755470
    27  H    2.431190   3.271950   3.319277   4.294309   7.362826
    28  H    3.139394   2.711034   2.466463   3.825223   7.123209
    29  H    9.282933   9.164732  13.300582  13.957908   4.004696
    30  H    7.707393   7.598987  11.591428  12.361926   2.452394
    31  H   11.210702  11.254055  15.022396  15.961698   6.048436
    32  H   10.375414  10.256596  13.745841  14.807179   5.408614
    33  H   10.891163  11.127806  14.549697  15.704924   6.098918
    34  H    2.723344   2.564304   6.472543   7.231535   3.045856
    35  H    2.635662   4.593529   7.687388   7.917676   5.566727
    36  H    4.574078   6.129804   9.856397  10.135505   4.715186
                   21         22         23         24         25
    21  S    0.000000
    22  H    3.254303   0.000000
    23  H    2.715779   1.796313   0.000000
    24  H    8.526723   9.115267  10.074097   0.000000
    25  H   10.701552  11.322827  12.454901   3.768566   0.000000
    26  H   11.464760  11.998478  13.110817   3.417107   1.796448
    27  H   10.114071  10.240264  11.440243   2.120520   2.960704
    28  H   10.099066   9.956191  11.322124   3.375116   2.752744
    29  H    2.400877   2.978681   2.680135  10.059244  11.727777
    30  H    2.401056   2.251979   2.969319   8.496519  10.182660
    31  H    4.379029   3.042632   2.455800  11.914456  13.838746
    32  H    4.730924   2.455126   3.041885  11.114879  12.828788
    33  H    4.927431   2.429355   2.429483  11.517203  13.672096
    34  H    6.040015   6.261136   7.454882   3.644243   5.061759
    35  H    7.276250   8.547215   9.095851   2.444039   5.631782
    36  H    5.415586   7.225343   7.350778   4.692979   7.720728
                   26         27         28         29         30
    26  H    0.000000
    27  H    2.255423   0.000000
    28  H    2.964913   1.795938   0.000000
    29  H   12.711564  11.350809  10.976659   0.000000
    30  H   11.118789   9.668215   9.252877   1.795949   0.000000
    31  H   14.699559  13.084699  12.682772   2.717471   3.705429
    32  H   13.716089  12.049088  11.479446   3.011379   3.158979
    33  H   14.373728  12.571656  12.207631   3.836158   4.083326
    34  H    5.866194   4.466912   4.089564   6.959833   5.288929
    35  H    5.459006   4.558669   5.711392   9.209172   7.914745
    36  H    7.823241   6.783073   7.664103   7.632287   6.668245
                   31         32         33         34         35
    31  H    0.000000
    32  H    1.795923   0.000000
    33  H    1.795983   1.795869   0.000000
    34  H    8.854548   7.875271   8.619786   0.000000
    35  H   11.160695  10.717496  10.929253   4.306247   0.000000
    36  H    9.537751   9.440545   9.464899   4.969067   2.465551
                   36
    36  H    0.000000
 Stoichiometry    C14H15N2O3S2(1-)
 Framework group  C1[X(C14H15N2O3S2)]
 Deg. of freedom   102
 Full point group                 C1
 Largest Abelian subgroup         C1      NOp   1
 Largest concise Abelian subgroup C1      NOp   1
                         Standard orientation:                         
 ---------------------------------------------------------------------
 Center     Atomic     Atomic              Coordinates (Angstroms)
 Number     Number      Type              X           Y           Z
 ---------------------------------------------------------------------
    1          6             0       -0.532654    2.799381    0.432568
    2          6             0        0.816579    2.513299    0.588063
    3          6             0        0.391445    0.173920    0.119390
    4          6             0       -1.433774    1.781267    0.117416
    5          6             0        1.289331    1.209707    0.438434
    6          6             0       -0.948533    0.480768   -0.038955
    7          6             0       -3.338576    0.792172   -0.343127
    8          6             0       -7.069583   -2.799011    0.833870
    9          6             0       -6.079480   -1.622035    0.745917
   10          6             0        3.421469   -0.018765    0.006329
   11          6             0        7.005576   -1.120522   -0.094442
   12          6             0       -5.397670   -1.173416   -0.560406
   13          6             0        4.690863   -0.372174    0.712855
   14          6             0        5.921177   -0.087248   -0.150875
   15          7             0       -2.805410    1.928117   -0.067787
   16          7             0        2.687206    0.962917    0.609063
   17          8             0        3.069654   -0.581997   -1.046650
   18          8             0        7.066110   -2.001741    0.759044
   19          8             0        7.898634   -0.978251   -1.038768
   20         16             0       -2.262296   -0.586721   -0.421231
   21         16             0       -5.081075    0.612817   -0.659691
   22          1             0       -5.263303   -1.864737    1.442454
   23          1             0       -6.626985   -0.742314    1.114919
   24          1             0        3.177298    1.570524    1.234268
   25          1             0        5.589244   -0.003208   -1.196365
   26          1             0        6.350263    0.871116    0.176091
   27          1             0        4.760817    0.219015    1.637377
   28          1             0        4.672405   -1.443203    0.963131
   29          1             0       -6.046350   -1.456245   -1.402279
   30          1             0       -4.435944   -1.699904   -0.645540
   31          1             0       -7.933256   -2.601357    0.182949
   32          1             0       -6.569277   -3.722906    0.510100
   33          1             0       -7.412230   -2.912730    1.873255
   34          1             0        0.743303   -0.844439   -0.000288
   35          1             0        1.510620    3.311240    0.827549
   36          1             0       -0.887443    3.816224    0.556948
 ---------------------------------------------------------------------
 Rotational constants (GHZ):      0.6668035      0.0754134      0.0700347
 Standard basis: 6-31G(d) (6D, 7F)
 There are   353 symmetry adapted basis functions of A   symmetry.
 Integral buffers will be    131072 words long.
 Raffenetti 1 integral format.
 Two-electron integral symmetry is turned on.
   353 basis functions,   696 primitive gaussians,   353 cartesian basis functions
    85 alpha electrons       85 beta electrons
       nuclear repulsion energy      1760.8402274693 Hartrees.
 NAtoms=   36 NActive=   36 NUniq=   36 SFac= 7.50D-01 NAtFMM=   80 NAOKFM=F Big=F
 One-electron integrals computed using PRISM.
 NBasis=   353 RedAO= T  NBF=   353
 NBsUse=   353 1.00D-06 NBFU=   353
 Harris functional with IExCor=  205 diagonalized for initial guess.
 ExpMin= 1.17D-01 ExpMax= 2.19D+04 ExpMxC= 3.30D+03 IAcc=1 IRadAn=         1 AccDes= 1.00D-06
 HarFok:  IExCor= 205 AccDes= 1.00D-06 IRadAn=         1 IDoV=1
 ScaDFX=  1.000000  1.000000  1.000000  1.000000
 Initial guess orbital symmetries:
       Occupied  (A) (A) (A) (A) (A) (A) (A) (A) (A) (A) (A) (A)
                 (A) (A) (A) (A) (A) (A) (A) (A) (A) (A) (A) (A)
                 (A) (A) (A) (A) (A) (A) (A) (A) (A) (A) (A) (A)
                 (A) (A) (A) (A) (A) (A) (A) (A) (A) (A) (A) (A)
                 (A) (A) (A) (A) (A) (A) (A) (A) (A) (A) (A) (A)
                 (A) (A) (A) (A) (A) (A) (A) (A) (A) (A) (A) (A)
                 (A) (A) (A) (A) (A) (A) (A) (A) (A) (A) (A) (A)
                 (A)
       Virtual   (A) (A) (A) (A) (A) (A) (A) (A) (A) (A) (A) (A)
                 (A) (A) (A) (A) (A) (A) (A) (A) (A) (A) (A) (A)
                 (A) (A) (A) (A) (A) (A) (A) (A) (A) (A) (A) (A)
                 (A) (A) (A) (A) (A) (A) (A) (A) (A) (A) (A) (A)
                 (A) (A) (A) (A) (A) (A) (A) (A) (A) (A) (A) (A)
                 (A) (A) (A) (A) (A) (A) (A) (A) (A) (A) (A) (A)
                 (A) (A) (A) (A) (A) (A) (A) (A) (A) (A) (A) (A)
                 (A) (A) (A) (A) (A) (A) (A) (A) (A) (A) (A) (A)
                 (A) (A) (A) (A) (A) (A) (A) (A) (A) (A) (A) (A)
                 (A) (A) (A) (A) (A) (A) (A) (A) (A) (A) (A) (A)
                 (A) (A) (A) (A) (A) (A) (A) (A) (A) (A) (A) (A)
                 (A) (A) (A) (A) (A) (A) (A) (A) (A) (A) (A) (A)
                 (A) (A) (A) (A) (A) (A) (A) (A) (A) (A) (A) (A)
                 (A) (A) (A) (A) (A) (A) (A) (A) (A) (A) (A) (A)
                 (A) (A) (A) (A) (A) (A) (A) (A) (A) (A) (A) (A)
                 (A) (A) (A) (A) (A) (A) (A) (A) (A) (A) (A) (A)
                 (A) (A) (A) (A) (A) (A) (A) (A) (A) (A) (A) (A)
                 (A) (A) (A) (A) (A) (A) (A) (A) (A) (A) (A) (A)
                 (A) (A) (A) (A) (A) (A) (A) (A) (A) (A) (A) (A)
                 (A) (A) (A) (A) (A) (A) (A) (A) (A) (A) (A) (A)
                 (A) (A) (A) (A) (A) (A) (A) (A) (A) (A) (A) (A)
                 (A) (A) (A) (A) (A) (A) (A) (A) (A) (A) (A) (A)
                 (A) (A) (A) (A)
 The electronic state of the initial guess is 1-A.
 Requested convergence on RMS density matrix=1.00D-08 within 128 cycles.
 Requested convergence on MAX density matrix=1.00D-06.
 Requested convergence on             energy=1.00D-06.
 No special actions if energy rises.
 Integral accuracy reduced to 1.0D-05 until final iterations.
 Initial convergence to 1.0D-05 achieved.  Increase integral accuracy.
 SCF Done:  E(RHF) =  -1667.41477697     A.U. after   16 cycles
             Convg  =    0.9300D-08             -V/T =  2.0013
             S**2   =   0.0000

 **********************************************************************

            Population analysis using the SCF density.

 **********************************************************************

 Orbital symmetries:
 BldTbl:  Degeneracy threshold= 1.00D-02
       Occupied  (A) (A) (A) (A) (A) (A) (A) (A) (A) (A) (A) (A)
                 (A) (A) (A) (A) (A) (A) (A) (A) (A) (A) (A) (A)
                 (A) (A) (A) (A) (A) (A) (A) (A) (A) (A) (A) (A)
                 (A) (A) (A) (A) (A) (A) (A) (A) (A) (A) (A) (A)
                 (A) (A) (A) (A) (A) (A) (A) (A) (A) (A) (A) (A)
                 (A) (A) (A) (A) (A) (A) (A) (A) (A) (A) (A) (A)
                 (A) (A) (A) (A) (A) (A) (A) (A) (A) (A) (A) (A)
                 (A)
       Virtual   (A) (A) (A) (A) (A) (A) (A) (A) (A) (A) (A) (A)
                 (A) (A) (A) (A) (A) (A) (A) (A) (A) (A) (A) (A)
                 (A) (A) (A) (A) (A) (A) (A) (A) (A) (A) (A) (A)
                 (A) (A) (A) (A) (A) (A) (A) (A) (A) (A) (A) (A)
                 (A) (A) (A) (A) (A) (A) (A) (A) (A) (A) (A) (A)
                 (A) (A) (A) (A) (A) (A) (A) (A) (A) (A) (A) (A)
                 (A) (A) (A) (A) (A) (A) (A) (A) (A) (A) (A) (A)
                 (A) (A) (A) (A) (A) (A) (A) (A) (A) (A) (A) (A)
                 (A) (A) (A) (A) (A) (A) (A) (A) (A) (A) (A) (A)
                 (A) (A) (A) (A) (A) (A) (A) (A) (A) (A) (A) (A)
                 (A) (A) (A) (A) (A) (A) (A) (A) (A) (A) (A) (A)
                 (A) (A) (A) (A) (A) (A) (A) (A) (A) (A) (A) (A)
                 (A) (A) (A) (A) (A) (A) (A) (A) (A) (A) (A) (A)
                 (A) (A) (A) (A) (A) (A) (A) (A) (A) (A) (A) (A)
                 (A) (A) (A) (A) (A) (A) (A) (A) (A) (A) (A) (A)
                 (A) (A) (A) (A) (A) (A) (A) (A) (A) (A) (A) (A)
                 (A) (A) (A) (A) (A) (A) (A) (A) (A) (A) (A) (A)
                 (A) (A) (A) (A) (A) (A) (A) (A) (A) (A) (A) (A)
                 (A) (A) (A) (A) (A) (A) (A) (A) (A) (A) (A) (A)
                 (A) (A) (A) (A) (A) (A) (A) (A) (A) (A) (A) (A)
                 (A) (A) (A) (A) (A) (A) (A) (A) (A) (A) (A) (A)
                 (A) (A) (A) (A) (A) (A) (A) (A) (A) (A) (A) (A)
                 (A) (A) (A) (A)
 The electronic state is 1-A.
 Alpha  occ. eigenvalues --  -91.92494 -91.91400 -20.42611 -20.29479 -20.25955
 Alpha  occ. eigenvalues --  -15.52013 -15.51725 -11.28975 -11.25453 -11.22842
 Alpha  occ. eigenvalues --  -11.22574 -11.21339 -11.20952 -11.19224 -11.18965
 Alpha  occ. eigenvalues --  -11.18369 -11.17987 -11.17766 -11.12866 -11.10925
 Alpha  occ. eigenvalues --  -11.07475  -8.93639  -8.92391  -6.61894  -6.61798
 Alpha  occ. eigenvalues --   -6.61599  -6.60669  -6.60535  -6.60335  -1.26961
 Alpha  occ. eigenvalues --   -1.23664  -1.16307  -1.15932  -1.08070  -1.05116
 Alpha  occ. eigenvalues --   -1.02841  -1.01606  -0.98036  -0.95047  -0.92492
 Alpha  occ. eigenvalues --   -0.91648  -0.85972  -0.79898  -0.76848  -0.76185
 Alpha  occ. eigenvalues --   -0.74315  -0.70105  -0.68827  -0.63852  -0.61497
 Alpha  occ. eigenvalues --   -0.61055  -0.57974  -0.56572  -0.55366  -0.54347
 Alpha  occ. eigenvalues --   -0.54104  -0.53664  -0.52600  -0.52138  -0.50598
 Alpha  occ. eigenvalues --   -0.49704  -0.48736  -0.47986  -0.47475  -0.45955
 Alpha  occ. eigenvalues --   -0.44874  -0.43385  -0.42821  -0.42285  -0.40524
 Alpha  occ. eigenvalues --   -0.40172  -0.39933  -0.37919  -0.36580  -0.35976
 Alpha  occ. eigenvalues --   -0.34629  -0.34040  -0.32032  -0.30913  -0.30525
 Alpha  occ. eigenvalues --   -0.26034  -0.22281  -0.19871  -0.17501  -0.16561
 Alpha virt. eigenvalues --    0.16638   0.19599   0.21376   0.21984   0.24543
 Alpha virt. eigenvalues --    0.26460   0.29062   0.29616   0.30218   0.31139
 Alpha virt. eigenvalues --    0.31973   0.32867   0.33899   0.35027   0.35593
 Alpha virt. eigenvalues --    0.37074   0.37201   0.38229   0.39860   0.40376
 Alpha virt. eigenvalues --    0.41430   0.42046   0.43000   0.43451   0.44494
 Alpha virt. eigenvalues --    0.44709   0.46563   0.47572   0.50047   0.50540
 Alpha virt. eigenvalues --    0.52922   0.53894   0.55269   0.55722   0.56985
 Alpha virt. eigenvalues --    0.58465   0.58577   0.59862   0.60041   0.62977
 Alpha virt. eigenvalues --    0.64455   0.64769   0.65304   0.67825   0.69118
 Alpha virt. eigenvalues --    0.70784   0.71955   0.74683   0.76079   0.76664
 Alpha virt. eigenvalues --    0.78206   0.78807   0.79374   0.80275   0.81030
 Alpha virt. eigenvalues --    0.81625   0.83488   0.84027   0.85219   0.87566
 Alpha virt. eigenvalues --    0.87937   0.88788   0.88908   0.90221   0.91838
 Alpha virt. eigenvalues --    0.92700   0.92927   0.94669   0.95349   0.95912
 Alpha virt. eigenvalues --    0.97212   0.98504   0.99748   1.00439   1.02422
 Alpha virt. eigenvalues --    1.02703   1.04238   1.04678   1.05178   1.05888
 Alpha virt. eigenvalues --    1.06237   1.07584   1.08043   1.10144   1.10285
 Alpha virt. eigenvalues --    1.11339   1.12013   1.13435   1.14586   1.15742
 Alpha virt. eigenvalues --    1.16900   1.17632   1.18147   1.18658   1.19317
 Alpha virt. eigenvalues --    1.19696   1.20044   1.20384   1.20645   1.21573
 Alpha virt. eigenvalues --    1.22067   1.22172   1.22881   1.23954   1.25311
 Alpha virt. eigenvalues --    1.25729   1.26750   1.26973   1.27490   1.28121
 Alpha virt. eigenvalues --    1.28392   1.29012   1.30138   1.31064   1.31981
 Alpha virt. eigenvalues --    1.33613   1.34357   1.34873   1.35871   1.37258
 Alpha virt. eigenvalues --    1.38430   1.38539   1.38631   1.39348   1.41951
 Alpha virt. eigenvalues --    1.44340   1.45965   1.46393   1.48342   1.48992
 Alpha virt. eigenvalues --    1.51226   1.53841   1.55422   1.55879   1.58297
 Alpha virt. eigenvalues --    1.58863   1.59591   1.61536   1.63152   1.64892
 Alpha virt. eigenvalues --    1.66485   1.67166   1.67734   1.70897   1.75001
 Alpha virt. eigenvalues --    1.77113   1.77557   1.79240   1.79800   1.80702
 Alpha virt. eigenvalues --    1.82714   1.83641   1.85663   1.89818   1.91395
 Alpha virt. eigenvalues --    1.92760   1.94119   1.98127   2.00275   2.01218
 Alpha virt. eigenvalues --    2.03587   2.04095   2.05076   2.06569   2.10029
 Alpha virt. eigenvalues --    2.10542   2.14799   2.18094   2.19538   2.20439
 Alpha virt. eigenvalues --    2.22921   2.23802   2.25311   2.26213   2.27734
 Alpha virt. eigenvalues --    2.28826   2.29412   2.30223   2.30477   2.30799
 Alpha virt. eigenvalues --    2.32204   2.32258   2.33785   2.36488   2.38773
 Alpha virt. eigenvalues --    2.38949   2.39756   2.40091   2.43137   2.44420
 Alpha virt. eigenvalues --    2.44699   2.45514   2.47471   2.49287   2.49570
 Alpha virt. eigenvalues --    2.51885   2.52766   2.54423   2.55574   2.56659
 Alpha virt. eigenvalues --    2.57172   2.58162   2.63182   2.63994   2.65000
 Alpha virt. eigenvalues --    2.66521   2.68914   2.69278   2.69554   2.70116
 Alpha virt. eigenvalues --    2.73581   2.74912   2.75908   2.78129   2.81317
 Alpha virt. eigenvalues --    2.83861   2.84969   2.87228   2.89226   2.90845
 Alpha virt. eigenvalues --    2.94030   3.00500   3.01166   3.02098   3.02873
 Alpha virt. eigenvalues --    3.03592   3.06172   3.07046   3.07698   3.09770
 Alpha virt. eigenvalues --    3.13172   3.19316   3.20434   3.23605   3.25860
 Alpha virt. eigenvalues --    3.26777   3.35438   3.39134   3.40114   3.42494
 Alpha virt. eigenvalues --    3.45750   3.49587   3.57916   3.59856   3.71139
 Alpha virt. eigenvalues --    3.73761   3.86717   4.34147   4.44591   4.48700
 Alpha virt. eigenvalues --    4.55007   4.57644   4.57872   4.59302   4.60688
 Alpha virt. eigenvalues --    4.67216   4.68332   4.69889   4.75063   4.76545
 Alpha virt. eigenvalues --    4.84914   4.86581   4.87330   4.94589   4.95353
 Alpha virt. eigenvalues --    5.05658   5.17048   5.24720
          Condensed to atoms (all electrons):
              1          2          3          4          5          6
     1  C    4.905100   0.541428  -0.035200   0.573684  -0.039676  -0.062311
     2  C    0.541428   4.980108  -0.046209  -0.043479   0.554541  -0.034757
     3  C   -0.035200  -0.046209   4.957356  -0.014881   0.581962   0.474398
     4  C    0.573684  -0.043479  -0.014881   4.542893  -0.025554   0.516492
     5  C   -0.039676   0.554541   0.581962  -0.025554   4.476726  -0.037798
     6  C   -0.062311  -0.034757   0.474398   0.516492  -0.037798   5.284574
     7  C    0.004071  -0.000021   0.002397  -0.107174  -0.000081  -0.054081
     8  C    0.000000   0.000000   0.000000   0.000000   0.000000   0.000000
     9  C    0.000000   0.000000   0.000000   0.000002   0.000000  -0.000010
    10  C   -0.000056   0.001857  -0.000559   0.000005  -0.022083   0.000180
    11  C    0.000000   0.000000   0.000000   0.000000   0.000001   0.000000
    12  C    0.000001   0.000000  -0.000001  -0.000106   0.000000   0.000324
    13  C    0.000000  -0.000216  -0.000008   0.000000   0.006176  -0.000005
    14  C    0.000000   0.000004   0.000006   0.000000  -0.000171   0.000000
    15  N   -0.047050   0.002969   0.007139   0.402019  -0.000403  -0.092239
    16  N    0.003103  -0.054942  -0.048132   0.000198   0.211668   0.003944
    17  O   -0.000008   0.000049  -0.003201   0.000008   0.004374   0.000078
    18  O    0.000000   0.000000   0.000000   0.000000   0.000000   0.000000
    19  O    0.000000   0.000000   0.000000   0.000000   0.000000   0.000000
    20  S    0.004626   0.000194  -0.042941  -0.071845   0.001689   0.269315
    21  S   -0.000059   0.000003   0.000000   0.003386   0.000000   0.002853
    22  H    0.000000   0.000000   0.000000   0.000001   0.000000  -0.000013
    23  H    0.000000   0.000000   0.000000   0.000000   0.000000   0.000000
    24  H    0.000017  -0.001393   0.002247  -0.000002  -0.024207  -0.000052
    25  H    0.000000   0.000000   0.000001   0.000000   0.000004   0.000000
    26  H    0.000000   0.000000  -0.000001   0.000000   0.000003   0.000000
    27  H    0.000000  -0.000044   0.000005   0.000000   0.000296   0.000000
    28  H    0.000000   0.000004  -0.000011   0.000000  -0.000071  -0.000001
    29  H    0.000000   0.000000   0.000000   0.000002   0.000000  -0.000002
    30  H    0.000000   0.000000   0.000005  -0.000028   0.000000  -0.000031
    31  H    0.000000   0.000000   0.000000   0.000000   0.000000   0.000000
    32  H    0.000000   0.000000   0.000000   0.000000   0.000000   0.000000
    33  H    0.000000   0.000000   0.000000   0.000000   0.000000   0.000000
    34  H    0.000113   0.002867   0.368402   0.000952  -0.012283  -0.032503
    35  H   -0.024300   0.376455   0.003112   0.001525  -0.032263   0.000210
    36  H    0.372671  -0.030526  -0.000110  -0.025734   0.001837   0.004627
              7          8          9         10         11         12
     1  C    0.004071   0.000000   0.000000  -0.000056   0.000000   0.000001
     2  C   -0.000021   0.000000   0.000000   0.001857   0.000000   0.000000
     3  C    0.002397   0.000000   0.000000  -0.000559   0.000000  -0.000001
     4  C   -0.107174   0.000000   0.000002   0.000005   0.000000  -0.000106
     5  C   -0.000081   0.000000   0.000000  -0.022083   0.000001   0.000000
     6  C   -0.054081   0.000000  -0.000010   0.000180   0.000000   0.000324
     7  C    5.238054  -0.000019   0.000916   0.000000   0.000000  -0.013689
     8  C   -0.000019   5.093326   0.323410   0.000000   0.000000  -0.027918
     9  C    0.000916   0.323410   5.161308   0.000000   0.000000   0.281772
    10  C    0.000000   0.000000   0.000000   4.285394   0.001510   0.000000
    11  C    0.000000   0.000000   0.000000   0.001510   3.995110   0.000000
    12  C   -0.013689  -0.027918   0.281772   0.000000   0.000000   5.404593
    13  C    0.000000   0.000000   0.000000   0.311737  -0.029707   0.000000
    14  C    0.000000   0.000000   0.000000  -0.029003   0.279205   0.000000
    15  N    0.502512   0.000000   0.000003   0.000000   0.000000   0.001701
    16  N    0.000000   0.000000   0.000000   0.215554  -0.000045   0.000000
    17  O    0.000000   0.000000   0.000000   0.566330  -0.000216   0.000000
    18  O    0.000000   0.000000   0.000000   0.000436   0.539541   0.000000
    19  O    0.000000   0.000000   0.000000  -0.000024   0.501884   0.000000
    20  S    0.271295  -0.000020  -0.000146  -0.000006   0.000000  -0.012055
    21  S    0.240490   0.003450  -0.059549   0.000000   0.000000   0.226313
    22  H    0.000291  -0.045731   0.401091   0.000000   0.000000  -0.047581
    23  H   -0.000138  -0.047093   0.408415   0.000000   0.000000  -0.053981
    24  H    0.000000   0.000000   0.000000  -0.014967   0.000005   0.000000
    25  H    0.000000   0.000000   0.000000   0.000515  -0.020825   0.000000
    26  H    0.000000   0.000000   0.000000   0.000134  -0.016908   0.000000
    27  H    0.000000   0.000000   0.000000  -0.061268   0.000435   0.000000
    28  H    0.000000   0.000000   0.000000  -0.027085  -0.002144   0.000000
    29  H    0.001742  -0.001333  -0.055572   0.000000   0.000000   0.388167
    30  H   -0.008041   0.000413  -0.039062   0.000000   0.000000   0.379132
    31  H    0.000000   0.388046  -0.042369   0.000000   0.000000  -0.002235
    32  H    0.000000   0.388319  -0.041551   0.000000   0.000000  -0.001774
    33  H    0.000000   0.397303  -0.035180   0.000000   0.000000   0.003079
    34  H   -0.000014   0.000000   0.000000   0.003745   0.000000   0.000000
    35  H    0.000003   0.000000   0.000000   0.000005   0.000000   0.000000
    36  H   -0.000095   0.000000   0.000000   0.000001   0.000000   0.000000
             13         14         15         16         17         18
     1  C    0.000000   0.000000  -0.047050   0.003103  -0.000008   0.000000
     2  C   -0.000216   0.000004   0.002969  -0.054942   0.000049   0.000000
     3  C   -0.000008   0.000006   0.007139  -0.048132  -0.003201   0.000000
     4  C    0.000000   0.000000   0.402019   0.000198   0.000008   0.000000
     5  C    0.006176  -0.000171  -0.000403   0.211668   0.004374   0.000000
     6  C   -0.000005   0.000000  -0.092239   0.003944   0.000078   0.000000
     7  C    0.000000   0.000000   0.502512   0.000000   0.000000   0.000000
     8  C    0.000000   0.000000   0.000000   0.000000   0.000000   0.000000
     9  C    0.000000   0.000000   0.000003   0.000000   0.000000   0.000000
    10  C    0.311737  -0.029003   0.000000   0.215554   0.566330   0.000436
    11  C   -0.029707   0.279205   0.000000  -0.000045  -0.000216   0.539541
    12  C    0.000000   0.000000   0.001701   0.000000   0.000000   0.000000
    13  C    5.455169   0.180094   0.000000  -0.100342  -0.073960   0.008974
    14  C    0.180094   5.533802   0.000000   0.003610  -0.004047  -0.124593
    15  N    0.000000   0.000000   6.874245  -0.000001   0.000000   0.000000
    16  N   -0.100342   0.003610  -0.000001   7.442432  -0.096340  -0.000002
    17  O   -0.073960  -0.004047   0.000000  -0.096340   8.226002   0.000007
    18  O    0.008974  -0.124593   0.000000  -0.000002   0.000007   8.380449
    19  O    0.004880  -0.119081   0.000000   0.000000  -0.000002  -0.098414
    20  S    0.000000   0.000000  -0.074259  -0.000065  -0.000008   0.000000
    21  S    0.000000   0.000000  -0.052077   0.000000   0.000000   0.000000
    22  H    0.000000   0.000000  -0.000013   0.000000   0.000000   0.000000
    23  H    0.000000   0.000000  -0.000002   0.000000   0.000000   0.000000
    24  H   -0.000189   0.000237   0.000000   0.322412   0.002165   0.000001
    25  H   -0.063264   0.390738   0.000000   0.000798   0.005431   0.001560
    26  H   -0.048399   0.374611   0.000000   0.000076   0.000255   0.001305
    27  H    0.384520  -0.037277   0.000000   0.004360   0.003191  -0.000183
    28  H    0.376350  -0.034873   0.000000   0.001513   0.000122   0.017430
    29  H    0.000000   0.000000  -0.000023   0.000000   0.000000   0.000000
    30  H    0.000000   0.000000   0.000001   0.000000   0.000000   0.000000
    31  H    0.000000   0.000000   0.000000   0.000000   0.000000   0.000000
    32  H    0.000000   0.000000   0.000000   0.000000   0.000000   0.000000
    33  H    0.000000   0.000000   0.000000   0.000000   0.000000   0.000000
    34  H   -0.000037   0.000002  -0.000058  -0.005618   0.007212   0.000000
    35  H    0.000001   0.000000  -0.000054  -0.001976   0.000000   0.000000
    36  H    0.000000   0.000000   0.000402  -0.000074   0.000000   0.000000
             19         20         21         22         23         24
     1  C    0.000000   0.004626  -0.000059   0.000000   0.000000   0.000017
     2  C    0.000000   0.000194   0.000003   0.000000   0.000000  -0.001393
     3  C    0.000000  -0.042941   0.000000   0.000000   0.000000   0.002247
     4  C    0.000000  -0.071845   0.003386   0.000001   0.000000  -0.000002
     5  C    0.000000   0.001689   0.000000   0.000000   0.000000  -0.024207
     6  C    0.000000   0.269315   0.002853  -0.000013   0.000000  -0.000052
     7  C    0.000000   0.271295   0.240490   0.000291  -0.000138   0.000000
     8  C    0.000000  -0.000020   0.003450  -0.045731  -0.047093   0.000000
     9  C    0.000000  -0.000146  -0.059549   0.401091   0.408415   0.000000
    10  C   -0.000024  -0.000006   0.000000   0.000000   0.000000  -0.014967
    11  C    0.501884   0.000000   0.000000   0.000000   0.000000   0.000005
    12  C    0.000000  -0.012055   0.226313  -0.047581  -0.053981   0.000000
    13  C    0.004880   0.000000   0.000000   0.000000   0.000000  -0.000189
    14  C   -0.119081   0.000000   0.000000   0.000000   0.000000   0.000237
    15  N    0.000000  -0.074259  -0.052077  -0.000013  -0.000002   0.000000
    16  N    0.000000  -0.000065   0.000000   0.000000   0.000000   0.322412
    17  O   -0.000002  -0.000008   0.000000   0.000000   0.000000   0.002165
    18  O   -0.098414   0.000000   0.000000   0.000000   0.000000   0.000001
    19  O    8.528897   0.000000   0.000000   0.000000   0.000000   0.000000
    20  S    0.000000  15.399475  -0.049363   0.000874   0.000065   0.000002
    21  S    0.000000  -0.049363  15.512619   0.002050  -0.005090   0.000000
    22  H    0.000000   0.000874   0.002050   0.544422  -0.021462   0.000000
    23  H    0.000000   0.000065  -0.005090  -0.021462   0.540637   0.000000
    24  H    0.000000   0.000002   0.000000   0.000000   0.000000   0.315745
    25  H    0.003845   0.000000   0.000000   0.000000   0.000000   0.000044
    26  H    0.000306   0.000000   0.000000   0.000000   0.000000  -0.000122
    27  H   -0.000043   0.000000   0.000000   0.000000   0.000000   0.002903
    28  H    0.000375   0.000000   0.000000   0.000000   0.000000  -0.000005
    29  H    0.000000   0.000349  -0.041274   0.004569   0.001090   0.000000
    30  H    0.000000   0.002314  -0.029008  -0.006512   0.004044   0.000000
    31  H    0.000000   0.000000   0.000003   0.004622  -0.002782   0.000000
    32  H    0.000000  -0.000004  -0.000076  -0.002952   0.004647   0.000000
    33  H    0.000000   0.000001  -0.000125  -0.003111  -0.003698   0.000000
    34  H    0.000000  -0.000238   0.000000   0.000000   0.000000  -0.000074
    35  H    0.000000   0.000013   0.000000   0.000000   0.000000   0.002748
    36  H    0.000000  -0.000124   0.000000   0.000000   0.000000  -0.000004
             25         26         27         28         29         30
     1  C    0.000000   0.000000   0.000000   0.000000   0.000000   0.000000
     2  C    0.000000   0.000000  -0.000044   0.000004   0.000000   0.000000
     3  C    0.000001  -0.000001   0.000005  -0.000011   0.000000   0.000005
     4  C    0.000000   0.000000   0.000000   0.000000   0.000002  -0.000028
     5  C    0.000004   0.000003   0.000296  -0.000071   0.000000   0.000000
     6  C    0.000000   0.000000   0.000000  -0.000001  -0.000002  -0.000031
     7  C    0.000000   0.000000   0.000000   0.000000   0.001742  -0.008041
     8  C    0.000000   0.000000   0.000000   0.000000  -0.001333   0.000413
     9  C    0.000000   0.000000   0.000000   0.000000  -0.055572  -0.039062
    10  C    0.000515   0.000134  -0.061268  -0.027085   0.000000   0.000000
    11  C   -0.020825  -0.016908   0.000435  -0.002144   0.000000   0.000000
    12  C    0.000000   0.000000   0.000000   0.000000   0.388167   0.379132
    13  C   -0.063264  -0.048399   0.384520   0.376350   0.000000   0.000000
    14  C    0.390738   0.374611  -0.037277  -0.034873   0.000000   0.000000
    15  N    0.000000   0.000000   0.000000   0.000000  -0.000023   0.000001
    16  N    0.000798   0.000076   0.004360   0.001513   0.000000   0.000000
    17  O    0.005431   0.000255   0.003191   0.000122   0.000000   0.000000
    18  O    0.001560   0.001305  -0.000183   0.017430   0.000000   0.000000
    19  O    0.003845   0.000306  -0.000043   0.000375   0.000000   0.000000
    20  S    0.000000   0.000000   0.000000   0.000000   0.000349   0.002314
    21  S    0.000000   0.000000   0.000000   0.000000  -0.041274  -0.029008
    22  H    0.000000   0.000000   0.000000   0.000000   0.004569  -0.006512
    23  H    0.000000   0.000000   0.000000   0.000000   0.001090   0.004044
    24  H    0.000044  -0.000122   0.002903  -0.000005   0.000000   0.000000
    25  H    0.491581  -0.016837   0.003608   0.001842   0.000000   0.000000
    26  H   -0.016837   0.564804  -0.006637   0.003850   0.000000   0.000000
    27  H    0.003608  -0.006637   0.593795  -0.018084   0.000000   0.000000
    28  H    0.001842   0.003850  -0.018084   0.438079   0.000000   0.000000
    29  H    0.000000   0.000000   0.000000   0.000000   0.513817  -0.016389
    30  H    0.000000   0.000000   0.000000   0.000000  -0.016389   0.491973
    31  H    0.000000   0.000000   0.000000   0.000000   0.002613  -0.000046
    32  H    0.000000   0.000000   0.000000   0.000000   0.000298   0.000798
    33  H    0.000000   0.000000   0.000000   0.000000  -0.000055  -0.000088
    34  H    0.000000   0.000000  -0.000009   0.000006   0.000000   0.000000
    35  H    0.000000   0.000000  -0.000007   0.000000   0.000000   0.000000
    36  H    0.000000   0.000000   0.000000   0.000000   0.000000   0.000000
             31         32         33         34         35         36
     1  C    0.000000   0.000000   0.000000   0.000113  -0.024300   0.372671
     2  C    0.000000   0.000000   0.000000   0.002867   0.376455  -0.030526
     3  C    0.000000   0.000000   0.000000   0.368402   0.003112  -0.000110
     4  C    0.000000   0.000000   0.000000   0.000952   0.001525  -0.025734
     5  C    0.000000   0.000000   0.000000  -0.012283  -0.032263   0.001837
     6  C    0.000000   0.000000   0.000000  -0.032503   0.000210   0.004627
     7  C    0.000000   0.000000   0.000000  -0.000014   0.000003  -0.000095
     8  C    0.388046   0.388319   0.397303   0.000000   0.000000   0.000000
     9  C   -0.042369  -0.041551  -0.035180   0.000000   0.000000   0.000000
    10  C    0.000000   0.000000   0.000000   0.003745   0.000005   0.000001
    11  C    0.000000   0.000000   0.000000   0.000000   0.000000   0.000000
    12  C   -0.002235  -0.001774   0.003079   0.000000   0.000000   0.000000
    13  C    0.000000   0.000000   0.000000  -0.000037   0.000001   0.000000
    14  C    0.000000   0.000000   0.000000   0.000002   0.000000   0.000000
    15  N    0.000000   0.000000   0.000000  -0.000058  -0.000054   0.000402
    16  N    0.000000   0.000000   0.000000  -0.005618  -0.001976  -0.000074
    17  O    0.000000   0.000000   0.000000   0.007212   0.000000   0.000000
    18  O    0.000000   0.000000   0.000000   0.000000   0.000000   0.000000
    19  O    0.000000   0.000000   0.000000   0.000000   0.000000   0.000000
    20  S    0.000000  -0.000004   0.000001  -0.000238   0.000013  -0.000124
    21  S    0.000003  -0.000076  -0.000125   0.000000   0.000000   0.000000
    22  H    0.004622  -0.002952  -0.003111   0.000000   0.000000   0.000000
    23  H   -0.002782   0.004647  -0.003698   0.000000   0.000000   0.000000
    24  H    0.000000   0.000000   0.000000  -0.000074   0.002748  -0.000004
    25  H    0.000000   0.000000   0.000000   0.000000   0.000000   0.000000
    26  H    0.000000   0.000000   0.000000   0.000000   0.000000   0.000000
    27  H    0.000000   0.000000   0.000000  -0.000009  -0.000007   0.000000
    28  H    0.000000   0.000000   0.000000   0.000006   0.000000   0.000000
    29  H    0.002613   0.000298  -0.000055   0.000000   0.000000   0.000000
    30  H   -0.000046   0.000798  -0.000088   0.000000   0.000000   0.000000
    31  H    0.551047  -0.026503  -0.026290   0.000000   0.000000   0.000000
    32  H   -0.026503   0.545656  -0.026193   0.000000   0.000000   0.000000
    33  H   -0.026290  -0.026193   0.523517   0.000000   0.000000   0.000000
    34  H    0.000000   0.000000   0.000000   0.408173  -0.000087   0.000008
    35  H    0.000000   0.000000   0.000000  -0.000087   0.470295  -0.001935
    36  H    0.000000   0.000000   0.000000   0.000008  -0.001935   0.463010
 Mulliken atomic charges:
              1
     1  C   -0.196153
     2  C   -0.248890
     3  C   -0.205776
     4  C    0.247639
     5  C    0.355315
     6  C   -0.243193
     7  C   -0.078418
     8  C   -0.472154
     9  C   -0.303478
    10  C    0.767648
    11  C    0.752152
    12  C   -0.525741
    13  C   -0.411774
    14  C   -0.413264
    15  N   -0.524811
    16  N   -0.902131
    17  O   -0.637441
    18  O   -0.726509
    19  O   -0.822625
    20  S    0.300861
    21  S    0.245452
    22  H    0.169456
    23  H    0.175347
    24  H    0.392488
    25  H    0.200959
    26  H    0.143558
    27  H    0.130439
    28  H    0.242703
    29  H    0.202002
    30  H    0.220525
    31  H    0.153897
    32  H    0.159336
    33  H    0.170840
    34  H    0.259442
    35  H    0.206255
    36  H    0.216048
 Sum of Mulliken charges=  -1.00000
 Atomic charges with hydrogens summed into heavy atoms:
              1
     1  C    0.019895
     2  C   -0.042636
     3  C    0.053665
     4  C    0.247639
     5  C    0.355315
     6  C   -0.243193
     7  C   -0.078418
     8  C    0.011918
     9  C    0.041325
    10  C    0.767648
    11  C    0.752152
    12  C   -0.103214
    13  C   -0.038632
    14  C   -0.068747
    15  N   -0.524811
    16  N   -0.509644
    17  O   -0.637441
    18  O   -0.726509
    19  O   -0.822625
    20  S    0.300861
    21  S    0.245452
    22  H    0.000000
    23  H    0.000000
    24  H    0.000000
    25  H    0.000000
    26  H    0.000000
    27  H    0.000000
    28  H    0.000000
    29  H    0.000000
    30  H    0.000000
    31  H    0.000000
    32  H    0.000000
    33  H    0.000000
    34  H    0.000000
    35  H    0.000000
    36  H    0.000000
 Sum of Mulliken charges=  -1.00000
 Entering OneElI...
 OneElI was handed  6097446 working-precision words.
 Multipole integrals L=0 to 4 MinM= 0 MaxM= 0.
 Requested accuracy = 0.1000D-12
 PrsmSu:  NPrtUS=   1 ThrOK=F
 PRISM was handed     5685851 working-precision words and  4097 shell-pairs
 Electronic moments (au):
  -170.00000000   -12.53405503     2.35778551     1.78809675
-12785.76251330 -1374.42742073  -359.58074494    55.69944541
    15.94425832     2.77532766-22804.15916940  -416.84789440
   -23.75203305  3099.47900128 22710.08618061   411.95262106
  -168.88565697   289.21791715 -1011.25424446 -1504.82105482
***************-30933.17662718 -2186.54290489  8443.36297157
 50747.95568627-13953.28106916   864.80280171  1302.85373019
   231.46678946***************-35257.22719258 -3237.55532041
 18670.05013325  4034.05439779 -1086.36692421
 Electronic spatial extent (au):  <R**2>= 14519.7707
 Nuclear    moments (au):
   169.00000000     0.00000000     0.00000000     0.00000000
 12491.38917062  1263.21299344   247.84579788     0.00000000
     0.00000000     0.00000000 19973.92082047   452.95423996
    30.14982104 -3181.86558176-22208.65156471  -213.74113149
   124.02637866  -284.61276492  1015.56293451  1519.06110634
*************** 25978.24736444   886.13556937   684.05906134
-47893.76455392 14456.40903326  -730.96028495 -1279.22903902
  -237.19239358103568.70583014 26527.49076237  2160.79314520
-18486.28485618 -4113.82855162  1293.77523311
 Total      moments (au):
    -1.00000000   -12.53405503     2.35778551     1.78809675
  -294.37334269  -111.21442729  -111.73494707    55.69944541
    15.94425832     2.77532766 -2830.23834893    36.10634556
     6.39778798   -82.38658048   501.43461589   198.21148956
   -44.85927831     4.60515223     4.30869005    14.24005153
-87065.90926990 -4954.92926275 -1300.40733552  9127.42203291
  2854.19113235   503.12796410   133.84251676    23.62469117
    -5.72560412-10392.23966472 -8729.73643021 -1076.76217521
   183.76527708   -79.77415383   207.40830890
 Charge=    -1.0000 electrons
 Dipole moment (field-independent basis, Debye):
    X=   -31.8584    Y=     5.9929    Z=     4.5449  Tot=    32.7342
 Quadrupole moment (field-independent basis, Debye-Ang):
   XX=  -395.9422   YY=  -149.5872   ZZ=  -150.2873
   XY=    74.9177   XZ=    21.4456   YZ=     3.7329
 Traceless Quadrupole moment (field-independent basis, Debye-Ang):
   XX=  -164.0033   YY=    82.3517   ZZ=    81.6516
   XY=    74.9177   XZ=    21.4456   YZ=     3.7329
 Octapole moment (field-independent basis, Debye-Ang**2):
  XXX= -2014.4545  YYY=    25.6991  ZZZ=     4.5537  XYY=   -58.6396
  XXY=   356.9018  XXZ=   141.0793  XZZ=   -31.9291  YZZ=     3.2778
  YYZ=     3.0668  XYZ=    10.1355
 Hexadecapole moment (field-independent basis, Debye-Ang**3):
 XXXX=-32793.1936 YYYY= -1866.2638 ZZZZ=  -489.7957 XXXY=  3437.8245
 XXXZ=  1075.0252 YYYX=   189.5021 YYYZ=    50.4115 ZZZX=     8.8982
 ZZZY=    -2.1565 XXYY= -3914.2155 XXZZ= -3288.0371 YYZZ=  -405.5602
 XXYZ=    69.2148 YYXZ=   -30.0468 ZZXY=    78.1199
 N-N= 1.760840227469D+03 E-N=-7.473907932516D+03  KE= 1.665329912217D+03
 Entering OneElI...
 OneElI was handed  5846975 working-precision words.
 Calculate electrostatic properties
    NBasis =   353  MinDer = 0  MaxDer = 0
    NGrid  =    36  NMatD  =   1
 Requested accuracy = 0.1000D-12
 PrsmSu:  NPrtUS=   1 ThrOK=F
 PRISM was handed     5469385 working-precision words and  3618 shell-pairs
 --------------------------------------------------------
       Center         ----      EFG at Nuclei      ----
                      3XX-RR        3YY-RR        3ZZ-RR
 --------------------------------------------------------
     1   Atom        0.179360      0.114023     -0.293382
     2   Atom        0.140863      0.085201     -0.226065
     3   Atom        0.083522      0.132855     -0.216377
     4   Atom       -0.024929      0.185041     -0.160112
     5   Atom       -0.062685      0.284445     -0.221760
     6   Atom        0.114041      0.056906     -0.170948
     7   Atom        0.042802      0.150210     -0.193013
     8   Atom       -0.010580     -0.005287      0.015867
     9   Atom        0.012267      0.029346     -0.041613
    10   Atom        0.176014     -0.232984      0.056970
    11   Atom        0.019571     -0.036117      0.016546
    12   Atom        0.116721     -0.240131      0.123410
    13   Atom       -0.016873      0.054186     -0.037313
    14   Atom       -0.039090      0.051584     -0.012494
    15   Atom       -0.091629      0.590448     -0.498820
    16   Atom       -0.560047      0.121356      0.438691
    17   Atom        0.958276      0.083981     -1.042258
    18   Atom        0.870607     -0.550326     -0.320280
    19   Atom       -0.297885      0.822114     -0.524229
    20   Atom       -2.041559      0.045250      1.996308
    21   Atom       -1.570194     -1.046422      2.616616
    22   Atom       -0.093071      0.126276     -0.033205
    23   Atom        0.038553     -0.128961      0.090408
    24   Atom        0.033666     -0.018433     -0.015234
    25   Atom        0.098842      0.142200     -0.241041
    26   Atom        0.079162     -0.188894      0.109732
    27   Atom        0.137716      0.021053     -0.158769
    28   Atom        0.140523     -0.255955      0.115432
    29   Atom       -0.000006      0.110657     -0.110651
    30   Atom       -0.185812      0.038573      0.147239
    31   Atom       -0.125231      0.130679     -0.005448
    32   Atom        0.055685     -0.165796      0.110111
    33   Atom        0.102619      0.138471     -0.241090
    34   Atom        0.094481     -0.255503      0.161022
    35   Atom       -0.044532     -0.103747      0.148280
    36   Atom        0.098876     -0.258367      0.159491
 --------------------------------------------------------
                        XY            XZ            YZ
 --------------------------------------------------------
     1   Atom       -0.018007      0.074501      0.073491
     2   Atom       -0.039039      0.035783      0.077534
     3   Atom       -0.033653      0.053709      0.079692
     4   Atom        0.073074      0.034241      0.072999
     5   Atom        0.044964      0.042304      0.119823
     6   Atom       -0.220870      0.008590      0.004613
     7   Atom        0.129926      0.057077      0.075499
     8   Atom       -0.027240      0.005433      0.008611
     9   Atom       -0.034625      0.039861      0.017158
    10   Atom       -0.228210      0.369635      0.280775
    11   Atom       -0.240470     -0.273088     -0.332741
    12   Atom       -0.068439      0.006651      0.010203
    13   Atom        0.020275     -0.099830     -0.020015
    14   Atom       -0.103197      0.092519      0.002905
    15   Atom       -0.570894     -0.064033      0.092505
    16   Atom        0.159830     -0.226950     -0.699065
    17   Atom       -1.150621      0.101164     -0.153820
    18   Atom       -0.462112     -0.744809      0.525121
    19   Atom       -0.718438      0.896116     -0.448674
    20   Atom        0.462246     -0.509631     -0.306390
    21   Atom       -1.048192     -0.749595      0.170168
    22   Atom        0.062301     -0.197102      0.063276
    23   Atom        0.164790      0.079178     -0.110374
    24   Atom       -0.159561     -0.196329     -0.267862
    25   Atom        0.012351     -0.118236      0.036509
    26   Atom       -0.147330     -0.044857     -0.116438
    27   Atom       -0.004664     -0.024333     -0.199205
    28   Atom       -0.021339      0.002624      0.095430
    29   Atom       -0.064328     -0.193762     -0.078752
    30   Atom        0.164865      0.033157     -0.014769
    31   Atom        0.057985     -0.203276      0.047317
    32   Atom        0.163021      0.058701     -0.107799
    33   Atom       -0.017374      0.126672      0.040729
    34   Atom        0.131210      0.005477     -0.048697
    35   Atom       -0.213034     -0.070882     -0.077538
    36   Atom        0.140052      0.014157     -0.053267
 --------------------------------------------------------


 ---------------------------------------------------------------------------------
              Nuclear Quadrupole in Principal Axis System
 ---------------------------------------------------------------------------------

       Atom             a.u.   MegaHertz   Gauss  10(-4) cm-1        Axes

              Baa    -0.3180   -42.672   -15.227   -14.234 -0.1520 -0.1719  0.9733
     1 C(13)  Bbb     0.1265    16.977     6.058     5.663  0.0737  0.9800  0.1846
              Bcc     0.1915    25.696     9.169     8.571  0.9856 -0.0998  0.1363
 
              Baa    -0.2493   -33.447   -11.935   -11.157 -0.1122 -0.2368  0.9651
     2 C(13)  Bbb     0.0882    11.840     4.225     3.949  0.4538  0.8518  0.2618
              Bcc     0.1610    21.607     7.710     7.207  0.8840 -0.4673 -0.0119
 
              Baa    -0.2446   -32.820   -11.711   -10.948 -0.1794 -0.2185  0.9592
     3 C(13)  Bbb     0.0873    11.711     4.179     3.906  0.9321  0.2741  0.2368
              Bcc     0.1573    21.109     7.532     7.041 -0.3147  0.9365  0.1545
 
              Baa    -0.1776   -23.829    -8.503    -7.948 -0.1382 -0.1686  0.9759
     4 C(13)  Bbb    -0.0470    -6.308    -2.251    -2.104  0.9436 -0.3217  0.0780
              Bcc     0.2246    30.137    10.754    10.053  0.3008  0.9317  0.2036
 
              Baa    -0.2540   -34.083   -12.162   -11.369 -0.1662 -0.2010  0.9654
     5 C(13)  Bbb    -0.0648    -8.699    -3.104    -2.902  0.9763 -0.1711  0.1325
              Bcc     0.3188    42.782    15.266    14.270  0.1386  0.9645  0.2246
 
              Baa    -0.1733   -23.253    -8.297    -7.757 -0.1673 -0.1800  0.9693
     6 C(13)  Bbb    -0.1349   -18.105    -6.460    -6.039  0.6386  0.7293  0.2456
              Bcc     0.3082    41.359    14.758    13.796  0.7512 -0.6601  0.0071
 
              Baa    -0.2130   -28.586   -10.200    -9.535 -0.1405 -0.1531  0.9782
     7 C(13)  Bbb    -0.0439    -5.893    -2.103    -1.966  0.8252 -0.5641  0.0303
              Bcc     0.2569    34.479    12.303    11.501  0.5471  0.8114  0.2056
 
              Baa    -0.0371    -4.981    -1.778    -1.662  0.7221  0.6673 -0.1825
     8 C(13)  Bbb     0.0157     2.112     0.754     0.705  0.5075 -0.3318  0.7952
              Bcc     0.0214     2.869     1.024     0.957 -0.4701  0.6669  0.5782
 
              Baa    -0.0729    -9.782    -3.490    -3.263 -0.5028 -0.3059  0.8085
     9 C(13)  Bbb     0.0148     1.987     0.709     0.663  0.5419  0.6171  0.5706
              Bcc     0.0581     7.795     2.782     2.600 -0.6735  0.7250 -0.1445
 
              Baa    -0.6074   -81.509   -29.085   -27.189  0.4623  0.6949 -0.5509
    10 C(13)  Bbb     0.1164    15.620     5.573     5.210 -0.4628  0.7190  0.5185
              Bcc     0.4910    65.890    23.511    21.978  0.7564  0.0152  0.6540
 
              Baa    -0.5674   -76.135   -27.167   -25.396  0.5258  0.6096  0.5933
    11 C(13)  Bbb     0.2320    31.132    11.109    10.384  0.8005 -0.5905 -0.1027
              Bcc     0.3354    45.004    16.058    15.012 -0.2877 -0.5289  0.7984
 
              Baa    -0.2531   -33.969   -12.121   -11.331  0.1824  0.9828 -0.0298
    12 C(13)  Bbb     0.1211    16.251     5.799     5.421 -0.4785  0.1152  0.8705
              Bcc     0.1320    17.718     6.322     5.910  0.8589 -0.1445  0.4913
 
              Baa    -0.1275   -17.103    -6.103    -5.705  0.6694  0.0071  0.7429
    13 C(13)  Bbb     0.0337     4.524     1.614     1.509 -0.4379  0.8116  0.3867
              Bcc     0.0937    12.579     4.489     4.196  0.6002  0.5841 -0.5464
 
              Baa    -0.1536   -20.612    -7.355    -6.875  0.7655  0.3922 -0.5100
    14 C(13)  Bbb     0.0160     2.149     0.767     0.717  0.2227  0.5822  0.7820
[...]
 9886 Fit      -0.081958
 9887 Fit      -0.082491
 9888 Fit      -0.084230
 9889 Fit      -0.087378
 9890 Fit      -0.092264
 9891 Fit      -0.099436
 9892 Fit      -0.086141
 9893 Fit      -0.083619
 9894 Fit      -0.081968
 9895 Fit      -0.081230
 9896 Fit      -0.081461
 9897 Fit      -0.082756
 9898 Fit      -0.085271
 9899 Fit      -0.089259
 9900 Fit      -0.095137
 9901 Fit      -0.103611
 9902 Fit      -0.087623
 9903 Fit      -0.084695
 9904 Fit      -0.082589
 9905 Fit      -0.081330
 9906 Fit      -0.080950
 9907 Fit      -0.081511
 9908 Fit      -0.083113
 9909 Fit      -0.085923
 9910 Fit      -0.090206
 9911 Fit      -0.096400
 9912 Fit      -0.086251
 9913 Fit      -0.083711
 9914 Fit      -0.082039
 9915 Fit      -0.081257
 9916 Fit      -0.081409
 9917 Fit      -0.082577
 9918 Fit      -0.084900
 9919 Fit      -0.088594
 9920 Fit      -0.094013
 9921 Fit      -0.101741
 9922 Fit      -0.086714
 9923 Fit      -0.084193
 9924 Fit      -0.082595
 9925 Fit      -0.081943
 9926 Fit      -0.082294
 9927 Fit      -0.083740
 9928 Fit      -0.086432
 9929 Fit      -0.090609
 9930 Fit      -0.096647
 9931 Fit      -0.085050
 9932 Fit      -0.083589
 9933 Fit      -0.083108
 9934 Fit      -0.083668
 9935 Fit      -0.085367
 9936 Fit      -0.088347
 9937 Fit      -0.092817
 9938 Fit      -0.099072
 9939 Fit      -0.084867
 9940 Fit      -0.084805
 9941 Fit      -0.085961
 9942 Fit      -0.088442
 9943 Fit      -0.092371
 9944 Fit      -0.038877
 9945 Fit      -0.040968
 9946 Fit      -0.039653
 9947 Fit      -0.037707
 9948 Fit      -0.037368
 9949 Fit      -0.039491
 9950 Fit      -0.038395
 9951 Fit      -0.036829
 9952 Fit      -0.036466
 9953 Fit      -0.039966
 9954 Fit      -0.038520
 9955 Fit      -0.037490
 9956 Fit      -0.036278
 9957 Fit      -0.035931
 9958 Fit      -0.039221
 9959 Fit      -0.037866
 9960 Fit      -0.036901
 9961 Fit      -0.036066
 9962 Fit      -0.035756
 9963 Fit      -0.035651
 9964 Fit      -0.040714
 9965 Fit      -0.038932
 9966 Fit      -0.037602
 9967 Fit      -0.036664
 9968 Fit      -0.036197
 9969 Fit      -0.035923
 9970 Fit      -0.035927
 9971 Fit      -0.041159
 9972 Fit      -0.039217
 9973 Fit      -0.037792
 9974 Fit      -0.036804
 9975 Fit      -0.036668
 9976 Fit      -0.036426
 9977 Fit      -0.036543
 9978 Fit      -0.037000
 9979 Fit      -0.042178
 9980 Fit      -0.039975
 9981 Fit      -0.038385
 9982 Fit      -0.037305
 9983 Fit      -0.037476
 9984 Fit      -0.037256
 9985 Fit      -0.037457
 9986 Fit      -0.038074
 9987 Fit      -0.039140
 9988 Fit      -0.043489
 9989 Fit      -0.041055
 9990 Fit      -0.039314
 9991 Fit      -0.038145
 9992 Fit      -0.038614
 9993 Fit      -0.038404
 9994 Fit      -0.038718
 9995 Fit      -0.039535
 9996 Fit      -0.040830
 9997 Fit      -0.045905
 9998 Fit      -0.042909
 9999 Fit      -0.040787
 **** Fit      -0.039388
 **** Fit      -0.040077
 **** Fit      -0.039867
 **** Fit      -0.040282
 **** Fit      -0.041257
 **** Fit      -0.042673
 **** Fit      -0.045177
 **** Fit      -0.042643
 **** Fit      -0.040977
 **** Fit      -0.041851
 **** Fit      -0.041645
 **** Fit      -0.042238
 **** Fit      -0.043463
 **** Fit      -0.048237
 **** Fit      -0.045084
 **** Fit      -0.042969
 **** Fit      -0.043913
 **** Fit      -0.043781
 **** Fit      -0.048408
 **** Fit      -0.045468
 **** Fit      -0.046219
 **** Fit      -0.063051
 **** Fit      -0.060017
 **** Fit      -0.065565
 **** Fit      -0.046985
 **** Fit      -0.048211
 **** Fit      -0.049953
 **** Fit      -0.052502
 **** Fit      -0.056007
 **** Fit      -0.060444
 **** Fit      -0.065710
 **** Fit      -0.046820
 **** Fit      -0.047496
 **** Fit      -0.048671
 **** Fit      -0.050452
 **** Fit      -0.053009
 **** Fit      -0.056429
 **** Fit      -0.060637
 **** Fit      -0.065374
 **** Fit      -0.070106
 **** Fit      -0.048942
 **** Fit      -0.048342
 **** Fit      -0.048614
 **** Fit      -0.049681
 **** Fit      -0.051577
 **** Fit      -0.054369
 **** Fit      -0.057979
 **** Fit      -0.062050
 **** Fit      -0.065868
 **** Fit      -0.068466
 **** Fit      -0.069158
 **** Fit      -0.068149
 **** Fit      -0.050864
 **** Fit      -0.050358
 **** Fit      -0.051296
 **** Fit      -0.053591
 **** Fit      -0.056978
 **** Fit      -0.060649
 **** Fit      -0.063236
 **** Fit      -0.063692
 **** Fit      -0.062202
 **** Fit      -0.059456
 **** Fit      -0.056024
 **** Fit      -0.052856
 **** Fit      -0.053091
 **** Fit      -0.053316
 **** Fit      -0.056226
 **** Fit      -0.059097
 **** Fit      -0.058730
 **** Fit      -0.055695
 **** Fit      -0.055780
 **** Fit      -0.039269
 **** Fit      -0.039495
 **** Fit      -0.039996
 **** Fit      -0.040230
 **** Fit      -0.039661
 **** Fit      -0.039328
 **** Fit      -0.038202
 **** Fit      -0.038426
 **** Fit      -0.038894
 **** Fit      -0.039591
 **** Fit      -0.039548
 **** Fit      -0.038930
 **** Fit      -0.038475
 **** Fit      -0.038223
 **** Fit      -0.037310
 **** Fit      -0.037549
 **** Fit      -0.038023
 **** Fit      -0.038726
 **** Fit      -0.039637
 **** Fit      -0.038350
 **** Fit      -0.037863
 **** Fit      -0.037496
 **** Fit      -0.037299
 **** Fit      -0.036630
 **** Fit      -0.036879
 **** Fit      -0.037344
 **** Fit      -0.038025
 **** Fit      -0.038911
 **** Fit      -0.039983
 **** Fit      -0.037551
 **** Fit      -0.037286
 **** Fit      -0.036972
 **** Fit      -0.036714
 **** Fit      -0.036584
 **** Fit      -0.036188
 **** Fit      -0.036454
 **** Fit      -0.036921
 **** Fit      -0.037595
 **** Fit      -0.038469
 **** Fit      -0.039532
 **** Fit      -0.040761
 **** Fit      -0.036475
 **** Fit      -0.036334
 **** Fit      -0.036177
 **** Fit      -0.036108
 **** Fit      -0.036005
 **** Fit      -0.036301
 **** Fit      -0.036803
 **** Fit      -0.037519
 **** Fit      -0.038444
 **** Fit      -0.039565
 **** Fit      -0.040863
 **** Fit      -0.035915
 **** Fit      -0.035969
 **** Fit      -0.035907
 **** Fit      -0.035890
 **** Fit      -0.036092
 **** Fit      -0.036426
 **** Fit      -0.036977
 **** Fit      -0.037756
 **** Fit      -0.038758
 **** Fit      -0.039967
 **** Fit      -0.041355
 **** Fit      -0.035873
 **** Fit      -0.035911
 **** Fit      -0.035942
 **** Fit      -0.036457
 **** Fit      -0.036822
 **** Fit      -0.037412
 **** Fit      -0.038238
 **** Fit      -0.039294
 **** Fit      -0.040558
 **** Fit      -0.036093
 **** Fit      -0.036208
 **** Fit      -0.036279
 **** Fit      -0.037104
 **** Fit      -0.037523
 **** Fit      -0.038208
 **** Fit      -0.039167
 **** Fit      -0.040381
 **** Fit      -0.041803
 **** Fit      -0.036657
 **** Fit      -0.036820
 **** Fit      -0.036903
 **** Fit      -0.038025
 **** Fit      -0.038493
 **** Fit      -0.039276
 **** Fit      -0.040369
 **** Fit      -0.041724
 **** Fit      -0.037794
 **** Fit      -0.037827
 **** Fit      -0.039208
 **** Fit      -0.039748
 **** Fit      -0.040700
 **** Fit      -0.042007
 **** Fit      -0.039210
 **** Fit      -0.039055
 **** Fit      -0.040620
 **** Fit      -0.041313
 **** Fit      -0.042611
 **** Fit      -0.041329
 **** Fit      -0.040621
 **** Fit      -0.042204
 **** Fit      -0.057199
 **** Fit      -0.049488
 **** Fit      -0.051079
 **** Fit      -0.052958
 **** Fit      -0.055122
 **** Fit      -0.057578
 **** Fit      -0.060367
 **** Fit      -0.063630
 **** Fit      -0.067688
 **** Fit      -0.047420
 **** Fit      -0.048601
 **** Fit      -0.050060
 **** Fit      -0.051801
 **** Fit      -0.053826
 **** Fit      -0.056137
 **** Fit      -0.058763
 **** Fit      -0.061811
 **** Fit      -0.065574
 **** Fit      -0.070671
 **** Fit      -0.046269
 **** Fit      -0.047252
 **** Fit      -0.048514
 **** Fit      -0.050066
 **** Fit      -0.051915
 **** Fit      -0.054058
 **** Fit      -0.056505
 **** Fit      -0.059312
 **** Fit      -0.062666
 **** Fit      -0.067033
 **** Fit      -0.044922
 **** Fit      -0.045528
 **** Fit      -0.046390
 **** Fit      -0.047536
 **** Fit      -0.048986
 **** Fit      -0.050747
 **** Fit      -0.052821
 **** Fit      -0.055211
 **** Fit      -0.057958
 **** Fit      -0.061218
 **** Fit      -0.065384
 **** Fit      -0.044526
 **** Fit      -0.045010
 **** Fit      -0.045735
 **** Fit      -0.046739
 **** Fit      -0.048046
 **** Fit      -0.049670
 **** Fit      -0.051611
 **** Fit      -0.053867
 **** Fit      -0.056462
 **** Fit      -0.059490
 **** Fit      -0.063178
 **** Fit      -0.067808
 **** Fit      -0.044476
 **** Fit      -0.044942
 **** Fit      -0.045678
 **** Fit      -0.046732
 **** Fit      -0.048132
 **** Fit      -0.049887
 **** Fit      -0.051989
 **** Fit      -0.054431
 **** Fit      -0.057229
 **** Fit      -0.060430
 **** Fit      -0.063937
 **** Fit      -0.044439
 **** Fit      -0.044643
 **** Fit      -0.045072
 **** Fit      -0.045805
 **** Fit      -0.046895
 **** Fit      -0.048369
 **** Fit      -0.050222
 **** Fit      -0.052417
 **** Fit      -0.054890
 **** Fit      -0.057511
 **** Fit      -0.059882
 **** Fit      -0.044968
 **** Fit      -0.045088
 **** Fit      -0.045513
 **** Fit      -0.046329
 **** Fit      -0.047591
 **** Fit      -0.049297
 **** Fit      -0.051359
 **** Fit      -0.053579
 **** Fit      -0.055529
 **** Fit      -0.045907
 **** Fit      -0.045828
 **** Fit      -0.046278
 **** Fit      -0.047359
 **** Fit      -0.049052
 **** Fit      -0.051065
 **** Fit      -0.052672
 **** Fit      -0.046431
 **** Fit      -0.046999
 **** Fit      -0.047266
 **** Fit      -0.048785
 **** Fit      -0.050309
 **** Fit      -0.049692
 **** Fit      -0.047965
 **** Fit      -0.048439
 **** Fit      -0.044910
 **** Fit      -0.043644
 **** Fit      -0.043548
 **** Fit      -0.044881
 **** Fit      -0.046437
 **** Fit      -0.046520
 **** Fit      -0.045042
 **** Fit      -0.042657
 **** Fit      -0.042197
 **** Fit      -0.042445
 **** Fit      -0.043428
 **** Fit      -0.044989
 **** Fit      -0.046755
 **** Fit      -0.048193
 **** Fit      -0.048819
 **** Fit      -0.048369
 **** Fit      -0.046961
 **** Fit      -0.045216
 **** Fit      -0.043708
 **** Fit      -0.041949
 **** Fit      -0.041426
 **** Fit      -0.041294
 **** Fit      -0.041611
 **** Fit      -0.042404
 **** Fit      -0.043648
 **** Fit      -0.045249
 **** Fit      -0.047030
 **** Fit      -0.048747
 **** Fit      -0.050127
 **** Fit      -0.050954
 **** Fit      -0.043919
 **** Fit      -0.042795
 **** Fit      -0.041508
 **** Fit      -0.040976
 **** Fit      -0.040705
 **** Fit      -0.040745
 **** Fit      -0.041139
 **** Fit      -0.041908
 **** Fit      -0.043049
 **** Fit      -0.044525
 **** Fit      -0.046259
 **** Fit      -0.048123
 **** Fit      -0.049946
 **** Fit      -0.051526
 **** Fit      -0.052688
 **** Fit      -0.043147
 **** Fit      -0.042246
 **** Fit      -0.041308
 **** Fit      -0.040786
 **** Fit      -0.040454
 **** Fit      -0.040360
 **** Fit      -0.040545
 **** Fit      -0.041040
 **** Fit      -0.041864
 **** Fit      -0.043018
 **** Fit      -0.044482
 **** Fit      -0.046209
 **** Fit      -0.048120
 **** Fit      -0.050097
 **** Fit      -0.051982
 **** Fit      -0.053589
 **** Fit      -0.054741
 **** Fit      -0.040824
 **** Fit      -0.040477
 **** Fit      -0.040308
 **** Fit      -0.040352
 **** Fit      -0.040643
 **** Fit      -0.041204
 **** Fit      -0.042051
 **** Fit      -0.043187
 **** Fit      -0.044604
 **** Fit      -0.046272
 **** Fit      -0.048144
 **** Fit      -0.050143
 **** Fit      -0.052161
 **** Fit      -0.054052
 **** Fit      -0.055629
 **** Fit      -0.040682
 **** Fit      -0.040501
 **** Fit      -0.040504
 **** Fit      -0.040725
 **** Fit      -0.041194
 **** Fit      -0.041933
 **** Fit      -0.042951
 **** Fit      -0.044251
 **** Fit      -0.045820
 **** Fit      -0.047630
 **** Fit      -0.049633
 **** Fit      -0.051755
 **** Fit      -0.053891
 **** Fit      -0.055887
 **** Fit      -0.040892
 **** Fit      -0.040882
 **** Fit      -0.041055
 **** Fit      -0.041443
 **** Fit      -0.042073
 **** Fit      -0.042960
 **** Fit      -0.044113
 **** Fit      -0.045528
 **** Fit      -0.047193
 **** Fit      -0.049080
 **** Fit      -0.051144
 **** Fit      -0.053317
 **** Fit      -0.055502
 **** Fit      -0.041630
 **** Fit      -0.041996
 **** Fit      -0.042583
 **** Fit      -0.043413
 **** Fit      -0.044494
 **** Fit      -0.045830
 **** Fit      -0.047412
 **** Fit      -0.049220
 **** Fit      -0.051223
 **** Fit      -0.053370
 **** Fit      -0.043541
 **** Fit      -0.044446
 **** Fit      -0.045609
 **** Fit      -0.047029
 **** Fit      -0.048694
 **** Fit      -0.097282
 **** Fit      -0.092800
 **** Fit      -0.099425
 **** Fit      -0.092969
 **** Fit      -0.096416
 **** Fit      -0.090197
 **** Fit      -0.095418
 **** Fit      -0.088852
 **** Fit      -0.094499
 **** Fit      -0.087900
 **** Fit      -0.098133
 **** Fit      -0.090156
 **** Fit      -0.084508
 **** Fit      -0.093220
 **** Fit      -0.086709
 **** Fit      -0.099055
 **** Fit      -0.091090
 **** Fit      -0.085396
 **** Fit      -0.092728
 **** Fit      -0.086811
 **** Fit      -0.096484
 **** Fit      -0.089839
 **** Fit      -0.085277
 **** Fit      -0.100318
 **** Fit      -0.093244
 **** Fit      -0.088312
 **** Fit      -0.100483
 **** Fit      -0.094005
 **** Fit      -0.089585
 **** Fit      -0.100704
 **** Fit      -0.095118
 **** Fit      -0.111645
 **** Fit      -0.120630
 **** Fit      -0.102344
 **** Fit      -0.110237
 **** Fit      -0.120541
 **** Fit      -0.094306
 **** Fit      -0.100240
 **** Fit      -0.108343
 **** Fit      -0.119054
 **** Fit      -0.089480
 **** Fit      -0.094928
 **** Fit      -0.102263
 **** Fit      -0.112072
 **** Fit      -0.125117
 **** Fit      -0.085174
 **** Fit      -0.090155
 **** Fit      -0.096565
 **** Fit      -0.104984
 **** Fit      -0.116154
 **** Fit      -0.082482
 **** Fit      -0.087344
 **** Fit      -0.093338
 **** Fit      -0.101047
 **** Fit      -0.111155
 **** Fit      -0.124615
 **** Fit      -0.082480
 **** Fit      -0.087610
 **** Fit      -0.093986
 **** Fit      -0.102215
 **** Fit      -0.113035
 **** Fit      -0.127491
 **** Fit      -0.084376
 **** Fit      -0.089946
 **** Fit      -0.097081
 **** Fit      -0.106395
 **** Fit      -0.118666
 **** Fit      -0.082454
 **** Fit      -0.087032
 **** Fit      -0.092949
 **** Fit      -0.100643
 **** Fit      -0.110614
 **** Fit      -0.123423
 **** Fit      -0.083368
 **** Fit      -0.087458
 **** Fit      -0.093117
 **** Fit      -0.100636
 **** Fit      -0.110297
 **** Fit      -0.122192
 **** Fit      -0.088525
 **** Fit      -0.093680
 **** Fit      -0.100695
 **** Fit      -0.109460
 **** Fit      -0.119331
 **** Fit      -0.091038
 **** Fit      -0.096163
 **** Fit      -0.103079
 **** Fit      -0.110782
 **** Fit      -0.117271
 **** Fit      -0.120058
 **** Fit      -0.094892
 **** Fit      -0.100671
 **** Fit      -0.106796
 **** Fit      -0.075099
 **** Fit      -0.074623
 **** Fit      -0.075697
 **** Fit      -0.073068
 **** Fit      -0.071568
 **** Fit      -0.071561
 **** Fit      -0.072840
 **** Fit      -0.075283
 **** Fit      -0.078791
 **** Fit      -0.072004
 **** Fit      -0.069629
 **** Fit      -0.068764
 **** Fit      -0.069103
 **** Fit      -0.070490
 **** Fit      -0.072837
 **** Fit      -0.076069
 **** Fit      -0.080085
 **** Fit      -0.070865
 **** Fit      -0.068013
 **** Fit      -0.066766
 **** Fit      -0.066725
 **** Fit      -0.067700
 **** Fit      -0.069594
 **** Fit      -0.072343
 **** Fit      -0.075871
 **** Fit      -0.080043
 **** Fit      -0.069983
 **** Fit      -0.066870
 **** Fit      -0.065359
 **** Fit      -0.065008
 **** Fit      -0.065611
 **** Fit      -0.067066
 **** Fit      -0.069317
 **** Fit      -0.072308
 **** Fit      -0.075951
 **** Fit      -0.080062
 **** Fit      -0.068973
 **** Fit      -0.065919
 **** Fit      -0.064371
 **** Fit      -0.063917
 **** Fit      -0.064360
 **** Fit      -0.065606
 **** Fit      -0.067600
 **** Fit      -0.070296
 **** Fit      -0.073624
 **** Fit      -0.077436
 **** Fit      -0.081418
 **** Fit      -0.067688
 **** Fit      -0.064997
 **** Fit      -0.063680
 **** Fit      -0.063405
 **** Fit      -0.064011
 **** Fit      -0.065416
 **** Fit      -0.067568
 **** Fit      -0.070414
 **** Fit      -0.073861
 **** Fit      -0.077719
 **** Fit      -0.070588
 **** Fit      -0.066690
 **** Fit      -0.064475
 **** Fit      -0.063508
 **** Fit      -0.063550
 **** Fit      -0.064479
 **** Fit      -0.066222
 **** Fit      -0.068722
 **** Fit      -0.071899
 **** Fit      -0.075606
 **** Fit      -0.079551
 **** Fit      -0.069488
 **** Fit      -0.066358
 **** Fit      -0.064612
 **** Fit      -0.063998
 **** Fit      -0.064357
 **** Fit      -0.065595
 **** Fit      -0.067644
 **** Fit      -0.070428
 **** Fit      -0.073831
 **** Fit      -0.077655
 **** Fit      -0.072535
 **** Fit      -0.068707
 **** Fit      -0.066324
 **** Fit      -0.065234
 **** Fit      -0.065288
 **** Fit      -0.066377
 **** Fit      -0.068409
 **** Fit      -0.071281
 **** Fit      -0.074843
 **** Fit      -0.078873
 **** Fit      -0.075974
 **** Fit      -0.071808
 **** Fit      -0.068829
 **** Fit      -0.067185
 **** Fit      -0.066839
 **** Fit      -0.067698
 **** Fit      -0.069654
 **** Fit      -0.072570
 **** Fit      -0.076255
 **** Fit      -0.071930
 **** Fit      -0.069731
 **** Fit      -0.069053
 **** Fit      -0.069887
 **** Fit      -0.072094
 **** Fit      -0.075441
 **** Fit      -0.072886
 **** Fit      -0.071875
 **** Fit      -0.073126
 **** Fit      -0.076330
 -----------------------------------------------------------------
 Leave Link  602 at Wed Jun 22 17:46:35 2016, MaxMem=    6291456 cpu:       7.3

 Test job not archived.
 1\1\GINC-COMPUTE-2-8\FOpt\RHF\6-31G(d)\C14H15N2O3S2(1-)\DAVE\22-Jun-20
 16\0\\#HF/6-31G* SCF=tight Test Pop=MK iop(6/33=2) iop(6/42=6) opt\\re
 mark line goes here\\-1,1\C,-3.6436106989,8.440298329,16.1678557169\C,
 -2.432745372,8.1340360296,15.6008654704\C,-3.2282231325,5.956565956,14
 .9059469591\C,-4.6756199649,7.506108972,16.1147724561\C,-2.205738162,6
 .8944510814,14.9661742532\C,-4.444281462,6.2916736821,15.4858418049\C,
 -6.6704202132,6.6558479292,16.4393600812\C,-9.2406538124,10.5417722124
 ,17.339247407\C,-8.9709085443,9.196956756,16.6630771206\C,-0.463482667
 1,5.6657610103,13.7090816313\C,1.5478467012,8.414768311,13.2262810629\
 C,-8.6725779058,8.1059214152,17.6887118166\C,0.9849890738,5.8337151261
 ,13.2779750326\C,1.2990659547,7.093298307,12.4475216138\N,-5.952549338
 ,7.6758826312,16.6451085959\N,-0.934386008,6.7045656148,14.441722317\O
 ,-1.1041485709,4.6823401685,13.4229938968\O,1.1185513425,8.4637448375,
 14.3999190445\O,2.1317308742,9.2826304355,12.5968473758\S,-5.909157714
 2,5.32932456,15.5662520371\S,-8.3431358768,6.4668300904,16.9710458232\
 H,-8.1293482799,9.2892776651,15.98829358\H,-9.8301997685,8.9040178102,
 16.0670105193\H,-0.2565488435,7.4571414989,14.5690460126\H,2.188615894
 3,6.9066469552,11.8559435349\H,0.5018849269,7.2772835668,11.7291634365
 \H,1.6020840817,5.8368560504,14.1715377722\H,1.2204180439,4.9409996242
 ,12.7112951989\H,-9.5260072235,7.9480179862,18.3394925613\H,-7.8251793
 053,8.3716418915,18.304171667\H,-10.0890267593,10.4831205298,18.016600
 6695\H,-8.3790507846,10.8707502637,17.9123096259\H,-9.4590233927,11.30
 80437968,16.6019088827\H,-3.069391641,5.0164330942,14.423298355\H,-1.6
 264583573,8.8448506636,15.6255446127\H,-3.8043130945,9.3884251479,16.6
 477820544\\Version=AM64L-G03RevD.02\State=1-A\HF=-1667.4943103\RMSD=6.
 779e-09\RMSF=1.089e-05\Thermal=0.\Dipole=-6.9795024,-0.8369423,2.78910
 79\PG=C01 [X(C14H15N2O3S2)]\\@


 Happiness is a conscious choice, not an automatic response.
 -- Mildred Barthel
 Job cpu time:  0 days  5 hours 50 minutes 44.6 seconds.
 File lengths (MBytes):  RWF=     90 Int=      0 D2E=      0 Chk=     14 Scr=      1
 Normal termination of Gaussian 03 at Wed Jun 22 17:46:35 2016.
